LAMMPS data file via write_data, version 22 Dec 2022, timestep = 1050371

1152 atoms
5 atom types

0.00908486466158738 15.397715719494078 xlo xhi
-0.00020369395153953785 16.34158344811511 ylo yhi
0.06898970291527853 71.09197401400279 zlo zhi

Masses

1 180.948
2 92.9064
3 50.9415
4 95.94
5 183.84

Atoms # atomic

894 3 1.0279402174292287 3.9467024621263658 0.8237893869009718 3 1 1
951 2 2.378502736577553 3.0739020200666216 2.881329505195633 3 1 1
332 3 1.0758151831022433 1.2985166834688073 0.7782590855380028 3 1 1
445 3 15.1706672901733 2.194671825900043 2.932073479674685 2 1 1
423 3 2.4360170812247492 0.28154439294034866 2.9445463191287797 3 1 1
338 3 3.6749168387389437 2.1667368837056635 0.7425363251594443 3 1 1
865 3 6.2312144379340975 3.1574688151056938 0.8199580346823776 3 1 1
399 2 4.952311292602701 1.1825504410800336 2.957954216743084 3 1 1
959 3 4.995834789888254 4.058747182001442 2.8624670252095474 3 1 1
317 2 6.252094794737033 0.24319057209721745 0.7736756565887638 3 1 1
402 2 7.571244432365465 2.1389225796713123 2.956855198022116 3 1 1
449 3 10.044028077979481 0.23675522602317559 3.0498269528222535 2 1 1
868 3 8.770244863114346 4.073797731677462 0.7799326897590825 3 1 1
996 3 10.069523557801613 3.0940989528470637 2.922476955902608 2 1 1
300 2 8.857890757127114 1.1845748253926458 0.7976322641071868 3 1 1
358 2 11.404266874501634 2.180398235073333 0.8029617713845295 2 1 1
891 3 14.014718512845466 3.0510877236678824 0.7834765479723131 2 1 1
1004 2 12.671665046563012 3.959889704940745 2.9800615481622694 2 1 1
442 3 12.706146864533489 1.2400435766859637 2.9818916973261693 2 1 1
351 3 13.996534241251654 0.3793456536231222 0.8271954853801754 2 1 1
985 3 2.3959709665025986 5.835658380419993 2.9777691538875803 3 1 1
895 2 1.0642500058272042 6.709303447361905 0.8160776018071924 3 1 1
977 3 15.22720774822218 4.8814462527894955 2.9015516919184523 2 1 1
1006 2 13.920367219352338 5.772178520315516 5.19468303841546 2 1 1
901 3 3.687879763826251 7.474846861422217 0.8712484087393612 3 1 1
874 3 3.709822886015386 4.902147769579174 0.8639198163233102 3 1 1
879 3 6.278242649735662 5.724872485725451 0.8073740053820128 3 1 1
960 3 4.919250176332753 6.6862807655489505 2.940102299368478 3 1 1
943 3 7.551681118022972 4.959709352674158 2.856380015368843 3 1 1
966 3 7.59222598995181 7.574146170962852 2.9858332763730573 3 1 1
1021 3 9.995891473073225 5.835118620931247 2.9153640679756014 2 1 1
869 3 8.807632649898132 6.676732290015061 0.7783285439743346 3 1 1
910 2 11.32373854713959 4.953594497657567 0.692388283764958 2 1 1
929 3 11.32972465175189 7.627284564306484 0.6712168649622609 2 1 1
1011 3 15.229064172299722 7.522048437138312 2.998182412889768 2 1 1
915 3 13.903784852944174 5.814347849893177 0.7346014276983269 2 1 1
1005 2 12.611055653802623 6.747844002557287 2.885625966583396 2 1 1
999 3 12.669788679217017 6.645225964953771 7.357052345142044 2 1 1
420 2 1.076032041296587 1.2677138162769797 5.1973294596977055 3 1 1
947 3 2.3862986896731373 3.11842857964997 7.48219478231387 3 1 1
421 2 2.436531870107068 0.38932578497534925 7.448951689417985 3 1 1
978 2 1.056525353959242 4.026456726979005 5.219509376750643 3 1 1
424 2 3.700416687360916 2.1177859226829794 5.23316444262128 3 1 1
400 3 6.2835262318889855 0.1913482738487681 5.173926723529144 3 1 1
953 3 4.903284484097979 3.993105644285707 7.417545665984052 3 1 1
395 3 5.038539918886706 1.2133209105499592 7.415965927109974 3 1 1
939 2 6.241849619633738 3.0414577294896614 5.192996215709953 3 1 1
447 2 10.056119364046527 0.22744565358863172 7.221010960881285 2 1 1
401 3 7.454948455980521 2.0541806612175013 7.311613149077501 3 1 1
379 3 8.750183331029472 1.104597580723708 5.103186964329359 3 1 1
944 2 8.848828933762142 4.013247261421906 5.06602569690179 3 1 1
992 2 10.089171791959242 3.0781739121423404 7.318622176187653 2 1 1
443 3 13.893648851016508 0.3583905913470603 5.240432522591262 2 1 1
450 2 11.409374661506076 2.1059540105483157 5.097803722670824 2 1 1
444 3 15.179490410926515 2.17750823714693 7.4316919296519695 2 1 1
971 3 13.94582528362874 3.0352133017589176 5.226697990983621 2 1 1
998 3 12.768455324067796 3.962708052711373 7.299861662227222 2 1 1
438 3 12.788638238071606 1.2015922705521278 7.309067686421957 2 1 1
980 3 2.3279621653212503 5.837238063411017 7.404048605909891 3 1 1
979 3 1.1099890069235918 6.738503863741139 5.178909887101893 3 1 1
972 3 15.202109040258556 4.867182058760891 7.450004911052902 2 1 1
952 2 3.656181601511276 4.957221647567913 5.19588090588723 3 1 1
987 3 3.6470692317836093 7.627521657647404 5.193846908846766 3 1 1
961 2 6.240838257936309 5.8865948562635015 5.101482773318052 3 1 1
954 3 4.88988013406491 6.754755042879992 7.424281051552386 3 1 1
963 2 7.4724427029792215 7.6427557590600035 7.3417893864461785 3 1 1
940 2 7.498651167988026 4.900031806639744 7.422727547116983 3 1 1
945 3 8.850727482230843 6.7563352480604 5.028297566015224 3 1 1
1016 3 10.139788359813094 5.791802240627372 7.281412079176466 2 1 1
997 3 11.338468726698448 4.9510919213304385 5.162996462969221 2 1 1
1023 3 11.32769661873222 7.507750646945249 5.087789598557559 2 1 1
1008 3 15.188211958020336 7.492256733594064 7.34106419105645 2 1 1
415 3 1.0512980918829797 1.3536926021656293 9.566726450398317 3 1 1
946 3 2.3769240009108326 3.140389244726521 11.695896146447874 3 1 1
440 3 15.276279669527035 2.174397250509595 11.685203887978227 2 1 1
973 3 1.0568485744593543 3.949531329490811 9.547920029826237 3 1 1
416 2 2.375818711982221 0.4283246262464649 11.70887679736474 3 1 1
422 3 3.639168501905986 2.1681935748808865 9.589528885324992 3 1 1
949 3 4.899478783217229 4.032828814084667 11.81334253302221 3 1 1
937 2 6.1944716892773375 3.0890145371552484 9.575151583566333 3 1 1
389 3 4.97041245015542 1.3715091976820049 11.690129245773234 3 1 1
397 3 7.462724016761708 2.184462181976391 11.750342658886977 3 1 1
396 3 6.137134720712532 0.34908167499971204 9.472393505408862 3 1 1
991 2 10.013448668876702 3.0938743759580256 11.756390566611987 2 1 1
375 2 8.722352914395934 1.2438775060562792 9.520763584075054 3 1 1
446 3 10.094810510736895 0.277363519576113 11.754744506611026 2 1 1
941 3 8.786299227728563 4.054465767342127 9.548226785972325 3 1 1
448 2 11.456755403948913 2.1175805998675816 9.467453320003733 2 1 1
969 3 14.042825418878428 3.0480881792467316 9.459114382346643 2 1 1
432 2 12.710062530050484 1.1786340692077533 11.706933773787657 2 1 1
994 2 12.711106647064657 3.964451490952554 11.732155928268627 2 1 1
439 3 14.031793631758259 0.31499381690863726 9.472957181943734 2 1 1
974 3 1.0611962132030597 6.556154125116367 9.51535241655318 3 1 1
975 3 2.385618011240729 5.689648546417302 11.715906629558003 3 1 1
982 3 3.7445398800318976 7.596478781406605 9.501486614720388 3 1 1
970 3 15.255121345552338 4.831975926083421 11.625333318688192 2 1 1
1002 3 15.183907787142681 7.3839373267704005 11.621096812390418 2 1 1
948 2 3.6573184359002098 4.911807203771021 9.5698656700831 3 1 1
955 3 6.218109810995542 5.9199159958392755 9.614703193880203 3 1 1
950 3 5.040336114178096 6.664820319196948 11.734939367965804 3 1 1
957 3 7.528948881648287 7.604094519924752 11.838332502145434 3 1 1
938 2 7.520687499104747 4.952836161833606 11.788450744201505 3 1 1
942 3 8.819616003808225 6.641567386197586 9.623518180441684 3 1 1
1014 3 10.084615338663914 5.851530134046516 11.802681550157606 2 1 1
993 2 11.386973569839427 4.91848432012253 9.483482802960447 2 1 1
1018 3 11.412042256840992 7.484380438249872 9.560082394760716 2 1 1
1000 3 13.988611527730354 5.739642782773637 9.487190153278133 2 1 1
995 3 12.608560091862984 6.6085715831356655 11.692477771096677 2 1 1
496 2 2.432166824153803 0.42611407536617024 16.268974808565083 3 1 1
1034 3 2.5292208204147677 3.0917329884804476 16.265505933707274 3 1 1
495 3 1.085776769764055 1.3016762564624025 13.977277669886433 3 1 1
1056 2 1.1311387242213702 3.880989877143274 13.951849974520153 3 1 1
498 2 3.68594866969638 2.2457089534362646 13.99781114457728 3 1 1
477 3 5.050189176944864 1.2978848977525679 16.341269848834813 3 1 1
1038 3 5.057781401355145 3.9828757739385034 16.276988535806574 3 1 1
1028 2 6.3011589024362396 3.161236581871602 14.03526440670254 3 1 1
481 3 7.54340960362152 2.1923789346447284 16.313950608049183 3 1 1
480 2 6.2290313294803905 0.3693246143199292 14.026408228209966 3 1 1
465 2 8.809440502068606 1.2728716519255918 14.034746403172413 3 1 1
1067 3 10.087382091505166 3.0341454915977546 16.25322344970457 2 1 1
514 3 10.050677344141713 0.34882057827769825 16.305366572353815 2 1 1
516 2 11.375013038405271 2.191437808160839 14.072352855435007 2 1 1
1032 3 8.845431570994933 4.063007076026835 14.084673271801947 3 1 1
513 3 15.194701417416026 2.0842462665543677 16.244883367671438 2 1 1
509 3 12.635769148928134 1.237373259256951 16.305795000474607 2 1 1
1051 3 13.923226009028019 3.0035408610480867 14.025700754410167 2 1 1
1071 3 12.585216162859325 3.827126127369778 16.28266502221079 2 1 1
512 2 13.992331721887517 0.3798399895172336 14.017079201719888 2 1 1
1058 3 2.5698051749612247 5.626103609741635 16.224054839697494 3 1 1
1057 2 1.1578540198371972 6.600026346477553 13.937103005879482 3 1 1
1037 3 3.774680060175372 4.873538908014718 13.986183007634672 3 1 1
1063 2 3.8550031256137163 7.497004538873067 13.951292510662974 3 1 1
1044 3 6.337716668241926 5.825440439198203 14.061540943656047 3 1 1
1039 3 5.162053203329484 6.580460275590411 16.19791744096542 3 1 1
1029 3 7.574038933700792 4.876094590801496 16.213103927565495 3 1 1
1046 3 7.536057431467643 7.485804754749381 16.23839500729992 3 1 1
1052 2 15.214341878604541 4.770008261267171 16.247169283866686 2 1 1
1070 3 11.236397136718907 4.884064392947845 14.026688133080082 2 1 1
1083 3 10.030764976989314 5.641645292346832 16.208817451774063 2 1 1
1033 3 8.811126172251399 6.6362759647889416 14.017529532723065 3 1 1
1088 3 11.233765035592512 7.4572763504523465 13.934762908557932 2 1 1
1076 2 13.86089269929441 5.638322479982908 13.92678576896033 2 1 1
1072 2 12.564681931481324 6.551777986338496 16.237819607254742 2 1 1
1078 3 15.270784260620427 7.431696590856459 16.22889036785626 2 1 1
1053 2 1.2193625662424719 3.8876245567780057 18.42213597068776 3 1 1
1101 3 2.546168491311715 3.0009927917268326 20.645639375343315 3 1 1
492 3 1.1916371956189453 1.2069878765644098 18.397896315870337 3 1 1
493 3 2.4947431520338306 0.36154706148165766 20.565063236122946 3 1 1
497 3 3.7997519714051755 2.183681619439799 18.370021384355972 3 1 1
1036 3 5.071980196685575 3.998709339246571 20.591968816118634 3 1 1
1027 3 6.268935984144484 3.0469134890456746 18.35114263564189 3 1 1
543 2 4.978444439020831 1.2642297740956856 20.570981576712434 3 1 1
479 2 7.586216504335811 2.1561887871167165 20.62076717251765 3 1 1
478 3 6.2282519642403535 0.3301755946975822 18.380508136855997 3 1 1
575 3 10.08367879474764 0.32501107233011267 20.633749003896025 2 1 1
1030 2 8.823222832455658 3.910942447552183 18.39548052309424 3 1 1
1066 3 10.080006901621818 2.911398989608356 20.60957044949593 2 1 1
463 3 8.815364658830985 1.1835452090647407 18.373800663646684 3 1 1
515 3 11.356620810262042 2.1192657507383332 18.388274886998524 2 1 1
511 2 15.293166850022326 2.1616866127720713 20.611550035934645 2 1 1
510 3 13.947083647641534 0.4069467416849673 18.339875197735932 2 1 1
505 3 12.596248361313267 1.1377348047550986 20.547430522544747 2 1 1
1050 3 13.891282955016488 2.944516320599407 18.34171661968324 2 1 1
1069 2 12.643800658557474 3.794971690686279 20.58288733807176 2 1 1
1054 3 1.1654848421467021 6.58862307629656 18.345796778863267 3 1 1
1055 2 2.519385509324729 5.621043720978158 20.636201405875088 3 1 1
1060 2 3.8770619750435924 7.41057166534607 18.38504538806009 3 1 1
1035 3 3.8867890660518882 4.770990390563398 18.355746618941307 3 1 1
1107 3 5.1458719361140695 6.529958720090004 20.644064512821494 3 1 1
1040 3 6.362138499693842 5.709347952382217 18.405591629463895 3 1 1
1096 3 7.4912635581262235 4.848581711379038 20.659702785734332 3 1 1
1042 3 7.565314388566484 7.485195417759889 20.62595511804601 3 1 1
1082 2 9.984224726800335 5.690486468863386 20.63605145559969 2 1 1
1031 3 8.777775353740033 6.641501538992283 18.405112996108297 3 1 1
1068 3 11.378451556989681 4.751384267047981 18.340429203315352 2 1 1
1085 3 11.246957267606835 7.421078611351759 18.423957707037655 2 1 1
1119 3 15.284625255534626 4.754198634462981 20.61988764059728 2 1 1
1075 2 15.286568056447672 7.415680877711041 20.654433751152222 2 1 1
1073 3 13.93854571312511 5.57314696333203 18.419339913648177 2 1 1
1137 2 12.594591937686317 6.561630855788004 20.60661012182277 2 1 1
557 3 1.261893813399046 1.3191557814819623 22.808936767708065 3 1 1
1099 3 2.542869150284872 3.07571864758691 24.905455265474142 3 1 1
1120 3 1.240880684705953 3.8724223515467093 22.799081936994465 3 1 1
558 2 2.522258725378196 0.4205901073528636 25.034127246661185 3 1 1
560 3 3.7382877116049893 2.2506000848575476 22.81710960671996 3 1 1
544 2 6.319631292787347 0.30740770646418597 22.886951216577494 3 1 1
1092 3 6.287053735692709 3.095316262532 22.86888127524788 3 1 1
541 3 5.0633095630934735 1.28268906694601 25.05325927362664 3 1 1
545 3 7.527998167516795 2.1201799731714432 25.02141243513292 3 1 1
1103 3 5.042871961789805 3.8536754111519564 24.952513442354757 3 1 1
573 2 10.026327392563752 0.25673388335340547 24.9579972586302 2 1 1
530 3 8.792892242939924 1.1895750055130334 22.841072636562206 3 1 1
1097 3 8.726128038902853 3.877451704716898 22.89643334272044 3 1 1
1130 3 9.972527050879187 3.047199292470747 25.04059070994174 2 1 1
576 2 11.322247497344275 2.0478632103753656 22.83581935354265 2 1 1
572 3 15.267082084143336 2.147839554343136 24.97737209468433 2 1 1
571 2 13.953265212993147 0.38067537617570557 22.80438627875951 2 1 1
1115 3 14.00579621026479 2.99222691503821 22.893994846607747 2 1 1
1133 3 12.674851370111378 3.8729714278003327 25.076830705467387 2 1 1
568 3 12.712196388209792 1.2584454206695028 25.02792682909288 2 1 1
1122 3 2.499278525050024 5.697457582240596 24.93742524964731 3 1 1
1121 3 1.2396085261213672 6.591457197846643 22.9117459250742 3 1 1
1127 3 3.761205840520377 7.424307167350203 22.833058379670316 3 1 1
1102 3 3.7880053919095404 4.773364940346889 22.818921794509155 3 1 1
1108 3 6.332897311045767 5.668046821821543 22.743297628659732 3 1 1
1104 2 5.040577307852207 6.551546921018325 24.92056327990752 3 1 1
1110 3 7.633782637097609 7.465484642419039 24.86674863006163 3 1 1
1093 3 7.553591088938277 4.753637480979596 24.96187479757826 3 1 1
1145 3 10.030610906803386 5.682843278072954 25.03987511090568 2 1 1
1098 3 8.749954983471975 6.611139022477004 22.854296913942047 3 1 1
1132 2 11.28283357560797 4.798601910283444 22.939858330621355 2 1 1
1150 3 11.231670772357633 7.520225838219425 22.88656158436502 2 1 1
1134 3 12.617245982364064 6.535184235885832 25.0585422946221 2 1 1
1138 2 13.971834061836919 5.677063837690434 22.864251188040697 2 1 1
1140 3 15.348300165482662 7.506404614990281 24.936552217219248 2 1 1
1116 2 15.303016612645232 4.801087977698765 25.003065745825197 2 1 1
554 3 1.2042488132786409 1.247605001366845 27.17933720917 3 1 1
587 3 2.5795426365568477 3.010940111310707 29.19287099785641 3 1 0
559 3 3.825887268450022 2.1335690097086912 27.15124487533035 3 1 1
51 3 2.581429783310305 0.3101959633911595 29.202654335553728 3 1 0
593 3 5.0185986585773685 3.8637323958242105 29.199750493184325 3 1 0
1091 3 6.273708683104963 2.9853719417700173 27.104668540429298 3 1 1
31 3 5.070076779382961 1.208291161169721 29.22254986405518 3 1 0
34 3 7.494199028888695 2.0773432454403453 29.218354144603047 3 1 0
542 3 6.270817758372117 0.3048859939702726 27.13171404014135 3 1 1
71 2 10.069807526015472 0.2366630394069813 29.234733307685715 2 1 0
527 3 8.678023584055776 1.2309509800476741 27.120495139845417 3 1 1
1094 3 8.76710154832031 3.8496529596057663 27.10294836164091 3 1 1
623 3 10.03440161977218 2.994547814388511 29.257788932449298 2 1 0
574 2 11.372818128549826 2.1120416731727265 27.128590491498645 2 1 1
68 3 15.305052614360902 2.1575995081619572 29.172338882579506 2 1 0
569 3 13.958836523322203 0.40167435229227205 27.13103461946325 2 1 1
1114 3 14.000591007386207 3.020927718812013 27.16243221308399 2 1 1
629 3 12.74199214987525 3.9493195987413654 29.234023027712265 2 1 0
65 3 12.746354059753049 1.2296379584184882 29.205459314169186 2 1 0
1117 2 1.2669030086681499 3.916939285499509 27.150975258835263 3 1 1
615 3 2.5365186621493154 5.739549862780551 29.27039568932853 3 1 0
1118 3 1.2809560713244608 6.578412027467722 27.162940492879695 3 1 1
1100 3 3.8281883084728268 4.79888866797884 27.103978188435175 3 1 1
1124 3 3.727930463498678 7.399733541694275 27.166688117447496 3 1 1
1105 3 6.300283946619767 5.567467896153801 27.09082487128787 3 1 1
594 3 4.932729186606488 6.560611644241701 29.23136729423509 3 1 0
600 2 7.51933187811062 7.417658292971762 29.211010777817894 3 1 0
582 3 7.497314789502353 4.640890441776256 29.18765314812253 3 1 0
1095 3 8.846872190621518 6.521625967386592 26.982636249768795 3 1 1
643 2 10.159478529086424 5.584793710852992 29.22493271277394 2 1 0
1147 3 11.399679035084509 7.370425086033349 27.053713643736387 2 1 1
1131 3 11.443407963219874 4.806183842036473 27.099887334250617 2 1 1
636 3 15.347254046371281 7.401346327255186 29.36355905202094 2 1 0
608 3 15.287373008712821 4.8950348494999085 29.254512376605902 2 1 0
1135 3 13.97532565072808 5.649323364179942 27.21474240171493 2 1 1
630 3 12.781905086676925 6.547571197613491 29.33708954152812 2 1 0
48 2 1.2779474693921264 1.1776992794113754 31.38536527667164 3 1 0
585 3 2.540333276215142 3.03443307295559 33.75251430855786 3 1 0
49 2 2.5608641644744057 0.3146144664158845 33.73583973959665 3 1 0
52 2 3.8450392688651096 2.100448401030356 31.433867841317785 3 1 0
28 3 5.064802352457849 1.1621613520070582 33.691349596784235 3 1 0
578 3 6.297159937336885 2.9121667387472483 31.442826939375035 3 1 0
589 3 4.9566209083170225 3.8048342126101957 33.688915699607094 3 1 0
33 3 7.433777625028482 2.0905091346824642 33.64650071174066 3 1 0
32 3 6.230005088218924 0.2413209360277092 31.447370856377283 3 1 0
69 3 10.174540462709102 0.26256298710858794 33.653963693780796 2 1 0
583 3 8.754517424829439 3.8198557349101243 31.400596221743513 3 1 0
621 2 10.087039589880058 2.9400524024113732 33.662503313756154 2 1 0
16 2 8.750520497466564 1.1415946968731674 31.4614492449146 3 1 0
72 2 11.42293911882374 2.1032561624511206 31.404387399344547 2 1 0
67 2 15.383978036256268 2.1754881666375825 33.759095014308194 2 1 0
66 2 13.984262450553741 0.30873482628670024 31.450326845339372 2 1 0
604 2 14.043860532675938 3.0993195753321876 31.387958936079443 2 1 0
62 3 12.718742799330526 1.2073402803413562 33.699358564719105 2 1 0
609 2 1.2646093662261382 3.9967230329964787 31.420027060763974 3 1 0
610 3 1.1971985862026921 6.662232940127273 31.40301205805399 3 1 0
611 2 2.4117281718141803 5.6665679036955785 33.73619344247486 3 1 0
617 3 3.6919443213364755 7.508714699794896 31.41475327468752 3 1 0
588 3 3.7394141949627544 4.8021063682281095 31.383549298798755 3 1 0
595 2 6.2012800259060015 5.5828834304500905 31.402770377948105 3 1 0
590 2 4.934293285798944 6.554384133354684 33.66408317413546 3 1 0
579 3 7.466243695486131 4.637711040746744 33.648562376272466 3 1 0
597 2 7.5251892549922035 7.420925637965662 33.68203912240117 3 1 0
624 3 11.497102534143064 4.83915307758649 31.411302188542216 2 1 0
639 2 10.175211355069088 5.654984207763874 33.71380087144678 2 1 0
584 2 8.84622753701231 6.52569377939931 31.43912573131568 3 1 0
633 2 15.298984606823058 7.491879423910466 33.6852718397508 2 1 0
625 2 12.790057485674874 3.9946100277268655 33.70975423695597 2 1 0
631 3 14.025328642351077 5.784332010416512 31.438833878066333 2 1 0
605 3 15.332296377223168 4.87088249122804 33.765326665556344 2 1 0
645 3 11.559720536861654 7.39029898115769 31.468689886895422 2 1 0
626 3 12.792352307821043 6.633878439465075 33.65048726562714 2 1 0
44 3 1.2179887319348481 1.2202174313629683 36.12341132902081 3 1 0
659 3 2.3212885855483476 3.0484325432050485 38.36982838553463 3 1 0
50 2 3.6317808689738644 2.1115666164662406 36.0586611155112 3 1 0
123 2 2.409443754021112 0.2511932738150947 38.40289911258205 3 1 0
103 3 4.934972026259775 1.076455454837484 38.38650132675834 3 1 0
665 2 4.830105416351964 3.8728778740406464 38.39413120839498 3 1 0
577 2 6.195523644699079 2.902367687604633 35.960708473452 3 1 0
106 2 7.450220783639647 2.0257109504029853 38.36103570721171 3 1 0
29 3 6.181852389092849 0.24890369939301965 36.012438309652644 3 1 0
695 2 10.187115767146974 2.9490035396203877 38.3208862995154 2 1 0
12 2 8.802786966826725 1.1390766832487675 35.98024984827789 3 1 0
580 2 8.841931907971565 3.9310003143048893 35.98074751506403 3 1 0
70 2 11.501547481571402 2.1326221820506843 35.98207100318916 2 1 0
143 3 10.202476869396135 0.19915778556586478 38.367498482224555 2 1 0
140 3 0.05004504257179221 2.170083011752253 38.39580418986736 3 1 0
603 2 14.16675304810166 3.1012386161595917 36.06740703488901 2 1 0
137 2 12.85782370802578 1.2126107163970952 38.36240472484031 2 1 0
63 2 14.152078453854465 0.31316069568686666 36.076596826614214 2 1 0
606 3 1.2369530922473329 3.9605117723076764 36.089186438347284 3 1 0
607 3 1.1201935528157698 6.487851451288546 36.11276330554562 3 1 0
687 3 2.3813538247569777 5.613668053237944 38.31636075151794 3 1 0
586 3 3.5805249677108972 4.764818375540649 36.08181208520291 3 1 0
613 2 3.6156039112335945 7.45658798721136 36.022874016668304 3 1 0
680 3 15.390682781531746 4.848229359758802 38.34997046557601 2 1 0
591 2 6.193687577842829 5.63811248593598 36.02939398561058 3 1 0
666 3 4.824839493392685 6.550277053132418 38.39406118810601 3 1 0
672 2 7.522801228083833 7.463207593244908 38.36337375792708 3 1 0
654 2 7.503979966906502 4.781312214549421 38.36568145776444 3 1 0
581 3 8.870462965821996 6.570653349792208 36.027325821596555 3 1 0
715 2 10.228790999932706 5.703534475051798 38.376701208213575 2 1 0
641 2 11.490666456616793 7.397779296385224 36.03539578334385 2 1 0
622 3 11.525854807672237 4.825602849991012 36.01217537336194 2 1 0
701 2 12.870871215429023 4.0173977343037475 38.36728553329032 2 1 0
708 3 15.283316388587709 7.396570030389864 38.318627709919404 2 1 0
627 3 14.110980073917133 5.705975476421994 36.037339401051774 2 1 0
702 3 12.860881286569747 6.63304273114119 38.40238096049191 2 1 0
681 3 1.1752496354538402 3.8525914675510395 40.56186354405009 3 1 0
657 3 2.4091648408290696 3.0572545285457227 42.829230571251905 3 1 0
120 3 1.1795783604136407 1.233930386563369 40.6013842324262 3 1 0
121 2 2.440498223868925 0.20480141022385512 42.777840595532055 3 1 0
124 2 3.682527223478568 2.0771861855108136 40.63790023110554 3 1 0
100 3 4.954903456477538 1.1762180544436813 42.81203616868922 3 1 0
650 3 6.15219919884927 2.937750112750061 40.67122703378907 3 1 0
661 3 4.91995539661915 3.891863127334953 42.87908694751105 3 1 0
105 2 7.451839541949108 2.156494279760519 42.87154469385598 3 1 0
104 3 6.115653695971901 0.22672070701858962 40.5736402622908 3 1 0
693 2 10.169942459467167 3.135222171424397 42.89681742534253 2 1 0
88 2 8.8352869490046 1.1561344785393495 40.57622948500359 3 1 0
144 2 11.559115521901333 2.1437636027975286 40.6130862789087 2 1 0
141 2 10.204133917275628 0.2562233469864662 42.84581377265878 2 1 0
139 3 15.371533464068461 2.112749575958228 42.74584460332916 2 1 0
138 2 14.172635442880129 0.24134752599538548 40.61873706498984 2 1 0
676 3 14.167223296221827 3.0869341858463564 40.61643524268719 2 1 0
134 2 12.861196345981595 1.2323812108542638 42.872496837675996 2 1 0
705 3 15.20935087625855 7.555314423192105 42.88235722880044 2 1 0
683 3 2.5161908476487334 5.615009990093386 42.81809278852512 3 1 0
682 2 1.1556692235210586 6.568506232154839 40.594237400012275 3 1 0
660 3 3.58681368438308 4.806411840832952 40.665988302482454 3 1 0
689 3 3.6652515221089907 7.438255047926293 40.604484617917464 3 1 0
667 2 6.1523758599078935 5.618633359431833 40.69897775564637 3 1 0
662 3 4.892537109866911 6.51468470463711 42.90872658794069 3 1 0
669 2 7.505338065231087 7.381213340690512 42.95417101079869 3 1 0
651 3 7.496760344117186 4.789183631157809 42.98355146226115 3 1 0
655 2 8.845659571853568 3.9762499110233875 40.67109458636005 3 1 0
711 3 10.187024211982466 5.729338147971719 42.91368235585046 2 1 0
656 3 8.912732169861583 6.580636237425853 40.71840610098971 3 1 0
717 3 11.486913201222961 7.402834687911651 40.69816591378605 2 1 0
696 3 11.56521349108685 4.92256008795791 40.70124019429254 2 1 0
698 3 12.731519554269756 6.61083000577736 42.90562984841108 2 1 0
697 3 12.740928828268538 4.055585072052581 42.81552344513515 2 1 0
703 3 13.987361851972988 5.689546496928709 40.61087347119911 2 1 0
677 2 15.27725534261033 4.819007882907547 42.824372180188014 2 1 0
735 2 2.434516818584836 3.0494686791631045 47.25862036018937 3 1 0
116 2 1.1109957160995396 1.1606547957423647 45.02737782171556 3 1 0
678 3 1.213273995697682 3.905305974134047 45.0017427462662 3 1 0
229 3 15.257158672403946 2.08832884949331 47.37198002710291 2 1 0
207 2 2.4646225497404646 0.19767267024080487 47.28920133055151 3 1 0
122 2 3.757914378325875 2.1016957268019403 45.0151333192793 3 1 0
743 3 5.089708051731785 3.9330284058769824 47.25056694822003 3 1 0
183 3 5.092800517271587 1.2311378439993392 47.314606999165285 3 1 0
649 3 6.268038672289687 3.091792907499823 45.138671533462464 3 1 0
101 2 6.225606716085704 0.295570061699479 45.09156022582831 3 1 0
186 3 7.526148701514731 2.205451249234915 47.307037556929444 3 1 0
780 3 10.131283464850757 3.125704521094668 47.277834107795435 2 1 0
84 2 8.86240289945198 1.2420668347908062 45.17359522674971 3 1 0
652 3 8.802852202840358 4.028441380101139 45.14717708513917 3 1 0
142 2 11.440596037443655 2.222842694931275 45.13899161709413 2 1 0
675 2 14.036614155789508 3.075362732615821 45.0743882882663 2 1 0
226 2 12.774807725143775 1.2048290503884747 47.32040311133907 2 1 0
135 3 14.059555374206312 0.20275160009204093 45.05892851393159 2 1 0
769 3 2.5589448135154993 5.65559993012746 47.22913288906876 3 1 0
679 2 1.1655557072072866 6.585744631678775 45.02304045208819 3 1 0
685 3 3.8188634143574474 7.379793058355486 44.98893043506169 3 1 0
658 3 3.7405245040540516 4.826245230413538 45.01761183378045 3 1 0
744 3 5.071182027353484 6.4568825153834295 47.19643120659982 3 1 0
663 3 6.251624101277434 5.622022572629902 45.09121267005259 3 1 0
750 3 7.551208719546888 7.327850773348409 47.26263731319334 3 1 0
727 3 7.554257013309083 4.7985206385456545 47.23247797108289 3 1 0
805 3 10.154140037260166 5.641708563691354 47.25891457641031 2 1 0
653 3 8.844324182234104 6.514980214536355 45.13929730659135 3 1 0
713 3 11.476157335624785 7.382995588470557 45.08278319057091 2 1 0
694 3 11.432461825357157 4.93174157656939 45.10020146130021 2 1 0
788 3 12.640885031910775 4.040746819764102 47.33474374443865 2 1 0
795 3 15.233342622225422 7.467508356946978 47.24797923429576 2 1 0
761 2 15.237463856745086 4.800973561148281 47.273317564592205 2 1 0
699 3 13.898776927104546 5.789713943559295 45.06202003011015 2 1 0
789 3 12.718176073055846 6.533229158599271 47.26748445652557 2 1 0
204 3 1.0714416212630629 1.1712471126001305 49.51071340539125 3 1 0
762 3 1.13690562461954 3.8242885474248762 49.47596510158226 3 1 0
731 2 2.4387386910136577 2.968699676793508 51.66268504445476 3 1 0
205 3 2.3414853733460377 0.28522125737645115 51.56808617588177 3 1 0
208 2 3.7909578137215836 2.085377473368373 49.42972963847632 3 1 0
184 3 6.3293122912930535 0.2875978000422744 49.472071592268776 3 1 0
723 3 6.336258866236699 3.0472577575822446 49.44394031526554 3 1 0
179 2 5.099673986317753 1.2350026554578064 51.672284426732816 3 1 0
185 3 7.647862193394687 2.1407545039652565 51.74646319186469 3 1 0
737 3 5.152782043778038 3.936755963488482 51.60147634629961 3 1 0
231 3 10.109238992606015 0.37867961621415314 51.739756714818114 2 1 0
776 3 10.167049006305039 3.0081263110901597 51.774468295865745 2 1 0
163 2 8.852271189992463 1.199584060716466 49.52258581977477 3 1 0
234 2 11.482406978056757 2.19618017907245 49.540440267499314 2 1 0
227 3 14.045227508040371 0.28938596925801124 49.56903931840035 2 1 0
228 3 15.224370965135103 2.0442046780032888 51.62958063825462 2 1 0
222 3 12.74115302999928 1.2648691726027603 51.67854492039678 2 1 0
755 3 14.044461389120931 3.0086707949403886 49.506393296123605 2 1 0
782 3 12.713852535138624 3.8908555603300816 51.66224736298152 2 1 0
764 3 2.545656421865832 5.6740003344869505 51.625478297561465 3 1 0
763 2 1.1736903854225047 6.507731353586698 49.47449308529026 3 1 0
736 3 3.826152338481044 4.773441758664016 49.448374905858124 3 1 0
771 2 3.8418211387245047 7.415190934446761 49.502358198541266 3 1 0
745 3 6.315248931134322 5.627461421157588 49.41776256871036 3 1 0
738 3 5.034446475266024 6.48675566449933 51.66539953938521 3 1 0
724 3 7.606053496937086 4.720429989048793 51.715671006572144 3 1 0
783 3 12.690508475299929 6.4946963509227125 51.63427611621483 2 1 0
728 2 8.871930113305027 3.9697850763479097 49.489032375008954 3 1 0
747 2 7.627333567958248 7.351589265384136 51.63054359659472 3 1 0
800 3 10.189545877376188 5.682579496920918 51.648306282201716 2 1 0
729 3 8.901508513145126 6.574643875642729 49.43833798602306 3 1 0
807 3 11.448039381883275 7.354159865157062 49.512089193759195 2 1 0
781 3 11.479603420360693 4.877671357234963 49.4903944317187 2 1 0
792 3 15.267070026661855 7.49294517845124 51.63876969839754 2 1 0
756 2 15.244381903853217 4.756933076794838 51.66637194116765 2 1 0
790 3 13.904133759206845 5.693408836987952 49.48000567869276 2 1 0
233 3 10.19167159040811 0.267155833002096 47.322190896317075 2 1 0
730 2 2.466246488994062 2.9571985278636843 56.061004203342556 3 1 0
199 3 1.1576752837970068 1.2249587654837986 53.7624870702274 3 1 0
757 3 1.0899520142037746 3.80679001902731 53.86981005617884 3 1 0
206 3 3.7777362002426997 2.063776225667071 53.86968195632532 3 1 0
200 2 2.4192341805643967 0.2444583647370353 56.12700488228774 3 1 0
733 3 5.073430585991315 3.828387590046919 56.050072083774275 3 1 0
721 3 6.339724487689548 3.01270798805192 53.83681752905987 3 1 0