LAMMPS (22 Dec 2022)
OMP_NUM_THREADS environment is not set. Defaulting to 1 thread. (../comm.cpp:98)
  using 1 OpenMP thread(s) per MPI task
# general variables
variable	temperature equal 900 #change this to the temperature of interest
variable	nsteps_run equal 1000000

# general settings
units		metal
dimension 3
boundary	p p p

#processors      3 3 3
atom_style	atomic

# ------------------- ATOM DEFINE ------------------------------

variable        latparam equal 3.14489999999968             #variable

variable        xl equal 0
variable        xh equal 3
variable        yl equal 0
variable        yh equal 3
variable        zl equal 0
variable        zh equal 16

lattice         bcc ${latparam} orient x 1 1 -2 orient y 1 1 1 orient z 1 -1 0
lattice         bcc 3.14489999999968 orient x 1 1 -2 orient y 1 1 1 orient z 1 -1 0
Lattice spacing in x,y,z = 5.1356002 5.4471266 4.4475602
region          mybox block ${xl} ${xh} ${yl} ${yh} ${zl} ${zh}
region          mybox block 0 ${xh} ${yl} ${yh} ${zl} ${zh}
region          mybox block 0 3 ${yl} ${yh} ${zl} ${zh}
region          mybox block 0 3 0 ${yh} ${zl} ${zh}
region          mybox block 0 3 0 3 ${zl} ${zh}
region          mybox block 0 3 0 3 0 ${zh}
region          mybox block 0 3 0 3 0 16

create_box      5 mybox
Created orthogonal box = (0 0 0) to (15.406801 16.34138 71.160964)
  1 by 2 by 8 MPI processor grid

mass 1 180.948
mass 2 92.9064
mass 3 50.9415
mass 4 95.94
mass 5 183.84

create_atoms 3 box
Created 1152 atoms
  using lattice units in orthogonal box = (0 0 0) to (15.406801 16.34138 71.160964)
  create_atoms CPU = 0.001 seconds
set type 3 type/ratio 2 0.4 384
Setting atom values ...
  460 settings made for type/ratio

# ----------------------- FORCE FIELDS -----------------------
pair_style mlip mlip.ini
pair_coeff * *

# ------------------------- SETTINGS --------------------------
timestep 0.001
delete_atoms overlap 2 all all
System init for delete_atoms ...
Neighbor list info ...
  update: every = 1 steps, delay = 0 steps, check = yes
  max neighbors/atom: 2000, page size: 100000
  master list distance cutoff = 6.8
  ghost atom cutoff = 6.8
  binsize = 3.4, bins = 5 5 21
  2 neighbor lists, perpetual/occasional/extra = 1 1 0
  (1) command delete_atoms, occasional, copy from (2)
      attributes: full, newton on
      pair build: copy
      stencil: none
      bin: none
  (2) pair mlip, perpetual
      attributes: full, newton on
      pair build: full/bin/atomonly
      stencil: full/bin/3d
      bin: standard
Deleted 0 atoms, new total = 1152
velocity all create ${temperature} 4928459 rot yes dist gaussian
velocity all create 900 4928459 rot yes dist gaussian

fix 1 all atom/swap 1 1 114514 ${temperature} types 3 2
fix 1 all atom/swap 1 1 114514 900 types 3 2
fix temp all npt temp ${temperature} ${temperature} 0.1 iso 0 0 0.1
fix temp all npt temp 900 ${temperature} 0.1 iso 0 0 0.1
fix temp all npt temp 900 900 0.1 iso 0 0 0.1
thermo 1000
thermo_style custom step pe ke etotal time cpu tpcpu

dump 1 all custom 20000 dump.* id type x y z
run ${nsteps_run}
run 1000000
Neighbor list info ...
  update: every = 1 steps, delay = 0 steps, check = yes
  max neighbors/atom: 2000, page size: 100000
  master list distance cutoff = 6.8
  ghost atom cutoff = 6.8
  binsize = 3.4, bins = 5 5 21
  1 neighbor lists, perpetual/occasional/extra = 1 0 0
  (1) pair mlip, perpetual
      attributes: full, newton on
      pair build: full/bin/atomonly
      stencil: full/bin/3d
      bin: standard
Per MPI rank memory allocation (min/avg/max) = 4.345 | 4.351 | 4.355 Mbytes
   Step         PotEng         KinEng         TotEng          Time           CPU           T/CPU     
         0  -10812.172      133.90058     -10678.271      0              0              0            
      1000  -10719.874      132.87331     -10587.001      1              111.45926      0.0089718882 
      2000  -10713.268      138.33171     -10574.936      2              225.56565      0.0087637507 
      3000  -10719.569      135.66118     -10583.908      3              341.63223      0.008615745  
      4000  -10711.068      125.81058     -10585.258      4              460.9687       0.0083796679 
      5000  -10714.834      136.05115     -10578.783      5              582.78091      0.0082093573 
      6000  -10716.474      130.71008     -10585.764      6              695.49588      0.0088719363 
      7000  -10712.427      133.18975     -10579.238      7              802.02181      0.0093873854 
      8000  -10715.978      129.74177     -10586.236      8              908.3183       0.0094076489 
      9000  -10711.234      132.77554     -10578.459      9              1015.3459      0.0093433832 
     10000  -10714.959      129.94964     -10585.009      10             1121.8059      0.0093932024 
     11000  -10714.218      133.22426     -10580.994      11             1229.0183      0.0093272808 
     12000  -10718.287      130.74836     -10587.539      12             1336.1178      0.0093371075 
     13000  -10708.309      134.35571     -10573.953      13             1443.3436      0.0093261125 
     14000  -10711.24       137.35785     -10573.882      14             1549.6392      0.0094077284 
     15000  -10715.627      127.34571     -10588.281      15             1654.8785      0.0095021534 
     16000  -10713.8        136.81297     -10576.987      16             1760.1819      0.0094963739 
     17000  -10713.059      129.4163      -10583.642      17             1865.8541      0.0094632266 
     18000  -10712.282      139.09786     -10573.184      18             1970.9579      0.0095143971 
     19000  -10716.93       136.93065     -10579.999      19             2075.9818      0.0095216464 
     20000  -10707.361      127.44631     -10579.914      20             2181.5401      0.0094734402 
     21000  -10720.783      129.2213      -10591.562      21             2286.8662      0.0094943213 
     22000  -10713.111      137.37862     -10575.732      22             2393.3388      0.0093920874 
     23000  -10714.334      135.9228      -10578.411      23             2501.3685      0.0092567132 
     24000  -10713.597      133.38167     -10580.215      24             2616.507       0.0086851926 
     25000  -10717.919      133.59106     -10584.328      25             2732.9954      0.0085845416 
     26000  -10716.164      130.89446     -10585.27       26             2848.8489      0.0086315908 
     27000  -10711.236      136.61673     -10574.619      27             2958.9888      0.0090793668 
     28000  -10717.424      130.93124     -10586.493      28             3065.6804      0.0093728074 
     29000  -10715.564      135.61678     -10579.947      29             3172.044       0.0094017143 
     30000  -10720.778      140.3572      -10580.42       30             3278.0022      0.0094376804 
     31000  -10717.113      128.23711     -10588.876      31             3383.0191      0.0095222743 
     32000  -10708.636      131.49137     -10577.145      32             3487.7885      0.0095447771 
     33000  -10721.844      138.10123     -10583.743      33             3592.4112      0.009558152  
     34000  -10718.385      132.97952     -10585.406      34             3696.6836      0.0095902675 
     35000  -10707.182      135.06557     -10572.116      35             3800.754       0.0096088797 
     36000  -10714.759      129.40339     -10585.356      36             3904.7483      0.0096159126 
     37000  -10709.743      132.92815     -10576.815      37             4009.0146      0.0095908281 
     38000  -10718.373      135.44844     -10582.924      38             4115.7039      0.0093730049 
     39000  -10709.031      136.81481     -10572.216      39             4231.2557      0.0086541323 
     40000  -10716.679      135.61122     -10581.068      40             4347.2136      0.0086238198 
     41000  -10711.257      137.04284     -10574.214      41             4462.7129      0.0086580595 
     42000  -10713.863      132.8649      -10580.998      42             4575.6485      0.0088546005 
     43000  -10710.531      131.17215     -10579.359      43             4686.1273      0.0090515138 
     44000  -10708.106      136.59179     -10571.514      44             4792.3976      0.0094099647 
     45000  -10713.588      129.84074     -10583.747      45             4898.0235      0.00946738   
     46000  -10715.054      135.52538     -10579.528      46             5003.3293      0.009496147  
     47000  -10720.155      133.10893     -10587.046      47             5109.3455      0.0094325221 
     48000  -10712.13       132.08648     -10580.044      48             5214.9369      0.0094704658 
     49000  -10710.181      133.25116     -10576.93       49             5318.7285      0.009634692  
     50000  -10714.848      133.08698     -10581.761      50             5422.5222      0.0096345002 
     51000  -10709.661      135.30403     -10574.357      51             5527.2002      0.0095531025 
     52000  -10713.06       133.10668     -10579.953      52             5632.0242      0.0095398008 
     53000  -10715.208      136.4162      -10578.792      53             5736.2189      0.0095974185 
     54000  -10716.308      124.54879     -10591.759      54             5839.5911      0.0096737813 
     55000  -10713.584      136.08759     -10577.496      55             5942.0323      0.0097616956 
     56000  -10716.814      135.39081     -10581.423      56             6045.391       0.0096750487 
     57000  -10715.943      134.56242     -10581.381      57             6149.4558      0.0096093923 
     58000  -10710.63       133.89376     -10576.737      58             6253.27        0.009632594  
     59000  -10716.578      135.82039     -10580.757      59             6358.3654      0.0095151691 
     60000  -10716.48       132.5301      -10583.95       60             6463.0142      0.0095557672 
     61000  -10710.262      136.18719     -10574.075      61             6568.0281      0.0095225504 
     62000  -10713.075      134.24702     -10578.828      62             6681.0132      0.008850722  
     63000  -10720.851      134.25727     -10586.594      63             6794.8332      0.0087858026 
     64000  -10715.894      138.31873     -10577.575      64             6908.48        0.0087991955 
     65000  -10713.917      131.42778     -10582.489      65             7016.5387      0.0092542246 
     66000  -10714.078      132.31419     -10581.764      66             7121.2254      0.0095523182 
     67000  -10714.062      133.85253     -10580.209      67             7224.2769      0.0097038869 
     68000  -10710.981      128.94385     -10582.037      68             7327.6378      0.0096748356 
     69000  -10714.016      135.99176     -10578.025      69             7431.1717      0.0096586746 
     70000  -10716.639      130.01423     -10586.625      70             7534.5778      0.0096706034 
     71000  -10716.347      130.55807     -10585.789      71             7638.482       0.0096242498 
     72000  -10713.842      135.25306     -10578.589      72             7742.6642      0.0095985687 
     73000  -10717.972      134.65027     -10583.322      73             7846.8647      0.0095968848 
     74000  -10711.993      137.62417     -10574.368      74             7951.1662      0.0095875932 
     75000  -10714.458      131.12767     -10583.331      75             8055.614       0.009574154  
     76000  -10712.19       135.56185     -10576.628      76             8160.9443      0.0094939483 
     77000  -10712.332      131.41157     -10580.92       77             8269.9         0.0091780373 
     78000  -10716.791      136.47036     -10580.32       78             8379.6453      0.0091120092 
     79000  -10713.873      136.18578     -10577.687      79             8491.3144      0.0089550272 
     80000  -10719.34       133.79777     -10585.543      80             8606.1483      0.0087082342 
     81000  -10710.145      141.79705     -10568.348      81             8725.8918      0.0083511836 
     82000  -10717.282      132.3372      -10584.944      82             8842.9         0.0085464098 
     83000  -10708.589      132.21992     -10576.369      83             8960.9234      0.0084728971 
     84000  -10713.308      130.24615     -10583.062      84             9070.4419      0.0091308749 
     85000  -10722.604      137.62035     -10584.984      85             9176.7333      0.0094080999 
     86000  -10716.65       139.08398     -10577.566      86             9281.8552      0.0095127634 
     87000  -10714.273      132.59264     -10581.68       87             9386.0762      0.0095949948 
     88000  -10713.732      141.89414     -10571.838      88             9490.1528      0.0096083114 
     89000  -10715.957      133.57203     -10582.385      89             9593.6913      0.009658239  
     90000  -10707.381      130.27404     -10577.107      90             9696.3163      0.00974422   
     91000  -10715.443      130.24782     -10585.196      91             9798.8459      0.0097532785 
     92000  -10717.324      130.65827     -10586.666      92             9901.7272      0.0097199373 
     93000  -10718.975      130.39555     -10588.58       93             10004.368      0.0097427006 
     94000  -10716.011      137.96196     -10578.049      94             10107.33       0.0097122977 
     95000  -10715.264      127.26623     -10587.998      95             10210.29       0.0097125896 
     96000  -10713.177      137.74312     -10575.434      96             10323.74       0.0088143946 
     97000  -10719.387      132.8341      -10586.552      97             10438.308      0.008728458  
     98000  -10714.018      136.18608     -10577.832      98             10550.373      0.0089234346 
     99000  -10714.326      134.73684     -10579.589      99             10660.023      0.0091199047 
    100000  -10711.647      131.49705     -10580.15       100            10768.726      0.0091993904 
    101000  -10709.918      130.223       -10579.695      101            10876.503      0.009278417  
    102000  -10708.269      139.36122     -10568.908      102            10982.459      0.0094378685 
    103000  -10713.823      133.12345     -10580.699      103            11086.575      0.0096046494 
    104000  -10710.641      134.89765     -10575.743      104            11190.302      0.0096406988 
    105000  -10716.205      131.37273     -10584.833      105            11294.775      0.0095718835 
    106000  -10716.42       130.513       -10585.907      106            11399.266      0.0095701934 
    107000  -10711.231      140.53327     -10570.698      107            11503.965      0.009551127  
    108000  -10713.236      134.17266     -10579.063      108            11606.859      0.0097187471 
    109000  -10711.004      131.69425     -10579.309      109            11709.675      0.009726167  
    110000  -10714.514      132.91044     -10581.603      110            11811.86       0.0097861921 
    111000  -10714.131      133.48037     -10580.65       111            11914.104      0.0097805023 
    112000  -10720.021      128.81817     -10591.203      112            12016.415      0.0097741133 
    113000  -10712.051      132.40068     -10579.651      113            12118.853      0.0097619874 
    114000  -10706.461      136.01112     -10570.45       114            12221.719      0.0097214019 
    115000  -10713.835      132.91874     -10580.917      115            12325.457      0.0096396912 
    116000  -10713.842      126.57532     -10587.267      116            12429.365      0.0096238467 
    117000  -10714.077      137.05789     -10577.019      117            12532.897      0.0096588871 
    118000  -10710.312      137.94335     -10572.369      118            12635.354      0.0097601947 
    119000  -10716.265      137.11089     -10579.154      119            12738.526      0.0096925296 
    120000  -10710.354      126.42795     -10583.926      120            12842.16       0.0096493092 
    121000  -10710.076      138.80478     -10571.271      121            12946.426      0.0095908869 
    122000  -10717.639      133.55657     -10584.082      122            13053.252      0.0093610204 
    123000  -10710.253      138.04536     -10572.207      123            13165.874      0.0088792758 
    124000  -10709.854      130.72322     -10579.131      124            13281.198      0.0086711772 
    125000  -10712.313      131.28264     -10581.03       125            13394.704      0.0088101739 
    126000  -10707.419      135.74411     -10571.675      126            13511.265      0.0085791764 
    127000  -10713.99       132.35289     -10581.637      127            13623.286      0.0089268448 
    128000  -10710.699      132.16423     -10578.535      128            13729.864      0.0093828673 
    129000  -10719.309      134.00973     -10585.299      129            13836.242      0.0094004113 
    130000  -10715.437      135.60386     -10579.833      130            13940.949      0.0095504337 
    131000  -10708.364      133.27333     -10575.091      131            14044.628      0.0096451438 
    132000  -10713.385      128.64016     -10584.745      132            14147.311      0.0097387471 
    133000  -10709.682      132.48303     -10577.199      133            14249.427      0.0097928142 
    134000  -10714.925      133.73946     -10581.186      134            14351.655      0.0097820215 
    135000  -10720.279      131.7687      -10588.511      135            14453.701      0.0097994697 
    136000  -10711.619      132.28704     -10579.332      136            14555.755      0.0097988206 
    137000  -10717.37       129.88257     -10587.488      137            14658.08       0.0097727848 
    138000  -10715.437      139.50969     -10575.927      138            14761.434      0.0096754483 
    139000  -10713.781      133.86307     -10579.918      139            14863.62       0.009786106  
    140000  -10717.091      132.76911     -10584.322      140            15460.271      0.0016760197 
    141000  -10716.228      137.74373     -10578.485      141            15562.746      0.009758538  
    142000  -10717.496      134.22879     -10583.268      142            15665.234      0.0097572517 
    143000  -10709.572      134.45307     -10575.119      143            15769.413      0.0095988232 
    144000  -10717.984      137.26545     -10580.719      144            15873.266      0.0096290028 
    145000  -10712.436      136.15536     -10576.281      145            15977.031      0.0096371468 
    146000  -10715.692      134.10212     -10581.59       146            16082.167      0.0095114977 
    147000  -10713.568      136.8457      -10576.722      147            16189.791      0.0092915845 
    148000  -10718.917      131.21471     -10587.702      148            16304.94       0.0086843926 
    149000  -10714.362      132.7277      -10581.634      149            16423.528      0.0084325689 
    150000  -10715.165      134.52565     -10580.64       150            16537.329      0.008787294  
    151000  -10714.508      141.13923     -10573.369      151            16649.196      0.0089391492 
    152000  -10718.114      135.38037     -10582.734      152            16760.085      0.0090180483 
    153000  -10709.705      134.01605     -10575.689      153            16866.042      0.0094377707 
    154000  -10715.171      132.91987     -10582.251      154            16970.11       0.0096091319 
    155000  -10715.888      141.98624     -10573.901      155            17072.308      0.0097849492 
    156000  -10714.655      131.06866     -10583.587      156            17175.024      0.0097355548 
    157000  -10715.308      138.70034     -10576.608      157            17277.67       0.0097421838 
    158000  -10722.761      133.07967     -10589.681      158            17380.189      0.0097543329 
    159000  -10715.854      136.31267     -10579.541      159            17482.845      0.0097412285 
    160000  -10717.655      132.37624     -10585.278      160            17586.231      0.009672565  
    161000  -10708.861      132.92986     -10575.932      161            17689.505      0.0096829371 
    162000  -10712.749      138.2966      -10574.452      162            17792.404      0.0097182427 
    163000  -10717.072      135.55452     -10581.517      163            17895.736      0.0096775715 
    164000  -10705.736      135.65607     -10570.08       164            18000.36       0.0095580765 
    165000  -10718.022      133.93352     -10584.088      165            18105.052      0.0095517506 
    166000  -10710.909      133.84451     -10577.065      166            18210.471      0.0094859507 
    167000  -10715.369      132.10169     -10583.267      167            18315.141      0.0095538812 
    168000  -10711.874      134.34106     -10577.533      168            18424.564      0.0091388114 
    169000  -10710.987      135.35468     -10575.632      169            18534.25       0.0091169563 
    170000  -10715.973      133.14326     -10582.83       170            18645.751      0.0089685417 
    171000  -10711.557      131.48667     -10580.07       171            18756.021      0.0090686073 
    172000  -10717.772      129.45338     -10588.319      172            18865.038      0.0091729543 
    173000  -10712.846      136.55237     -10576.293      173            18972.059      0.0093438941 
    174000  -10716.274      136.94483     -10579.329      174            19077.085      0.0095214977 
    175000  -10715.868      136.91277     -10578.955      175            19181.832      0.0095467929 
    176000  -10720.272      136.26762     -10584.004      176            19285.552      0.0096413599 
    177000  -10718.909      136.28885     -10582.621      177            19389.73       0.0095989383 
    178000  -10709.421      127.2054      -10582.216      178            19493.521      0.0096347589 
    179000  -10714.43       127.33381     -10587.097      179            19597.609      0.0096072729 
    180000  -10711.612      134.98019     -10576.632      180            19700.166      0.0097506383 
    181000  -10713.945      137.87309     -10576.072      181            19802.762      0.0097470243 
    182000  -10716.65       127.57426     -10589.075      182            19905.189      0.0097630407 
    183000  -10716.081      138.61826     -10577.462      183            20008.118      0.0097154404 
    184000  -10717.003      130.76761     -10586.236      184            20112.059      0.0096208459 
    185000  -10717          133.00006     -10584          185            20220.03       0.0092616869 
    186000  -10711.894      133.95693     -10577.937      186            20333.064      0.0088469182 
    187000  -10714.754      132.27929     -10582.475      187            20451.569      0.0084384876 
    188000  -10719.927      133.89188     -10586.035      188            20566.675      0.0086876089 
    189000  -10713.051      133.9702      -10579.081      189            20676.802      0.009080411  
    190000  -10723.138      131.71401     -10591.424      190            20783.625      0.0093613268 
    191000  -10714.099      139.09198     -10575.007      191            20888.287      0.009554496  
    192000  -10718.399      132.1901      -10586.209      192            20992.703      0.0095770918 
    193000  -10702.326      134.71069     -10567.615      193            21097.442      0.0095475513 
    194000  -10714.505      135.28455     -10579.22       194            21201.617      0.0095992188 
    195000  -10711.204      127.84449     -10583.36       195            21305.775      0.0096008657 
    196000  -10714.422      135.44194     -10578.98       196            21408.413      0.0097429309 
    197000  -10711.888      125.71638     -10586.172      197            21511.464      0.0097039573 
    198000  -10710.775      132.16983     -10578.605      198            21614.21       0.0097326858 
    199000  -10713.244      128.38088     -10584.863      199            21717.908      0.0096434713 
    200000  -10716.493      134.38978     -10582.103      200            21823.378      0.0094813069 
    201000  -10719.415      133.0091      -10586.406      201            21932.493      0.009164622  
    202000  -10716.892      132.92255     -10583.969      202            22046.917      0.008739469  
    203000  -10721.865      133.35137     -10588.513      203            22164.446      0.0085085092 
    204000  -10708.672      136.75866     -10571.913      204            22287.933      0.0080980698 
    205000  -10715.229      135.53784     -10579.692      205            22399.334      0.008976574  
    206000  -10709.201      135.91426     -10573.286      206            22504.018      0.009552536  
    207000  -10715.857      135.3749      -10580.482      207            22608.042      0.0096131419 
    208000  -10707.313      137.79695     -10569.516      208            22711.781      0.0096395775 
    209000  -10719.59       134.74497     -10584.845      209            22815.073      0.0096813389 
    210000  -10713.799      137.10801     -10576.691      210            22918.338      0.0096837593 
    211000  -10715.287      135.47508     -10579.812      211            23021.761      0.009669024  
    212000  -10718.067      136.34713     -10581.72       212            23125.24       0.0096637997 
    213000  -10715.817      132.72911     -10583.088      213            23228.842      0.009652344  
    214000  -10714.593      130.51302     -10584.08       214            23333.986      0.009510818  
    215000  -10712.576      136.62844     -10575.947      215            23439.764      0.0094537217 
    216000  -10713.687      131.17309     -10582.513      216            23546.595      0.009360535  
    217000  -10703.465      134.67605     -10568.789      217            23654.263      0.009287851  
    218000  -10711.592      130.19615     -10581.396      218            23763.308      0.0091705418 
    219000  -10715.004      136.31152     -10578.693      219            23873.583      0.0090682379 
    220000  -10719.187      130.42199     -10588.765      220            23982.475      0.0091833981 
    221000  -10718.336      131.79354     -10586.542      221            24088.333      0.0094466338 
    222000  -10713.834      130.10687     -10583.727      222            24193.658      0.0094943635 
    223000  -10716.382      135.34727     -10581.035      223            24297.545      0.0096259204 
    224000  -10716.471      134.33269     -10582.138      224            24403.113      0.0094725173 
    225000  -10715.628      139.28842     -10576.34       225            24509.23       0.0094235914 
    226000  -10719.921      135.27972     -10584.641      226            24616.214      0.0093471682 
    227000  -10713.201      134.68585     -10578.515      227            24722.284      0.0094277472 
    228000  -10718.049      130.88138     -10587.168      228            24828.493      0.009415395  
    229000  -10710.134      137.31867     -10572.816      229            24932.106      0.0096513308 
    230000  -10716.419      129.7375      -10586.681      230            25034.918      0.0097264489 
    231000  -10711.487      134.86785     -10576.619      231            25137.437      0.0097543106 
    232000  -10713.902      133.62363     -10580.279      232            25239.546      0.009793484  
    233000  -10717.233      133.57967     -10583.654      233            25341.577      0.0098009488 
    234000  -10704.799      132.66763     -10572.131      234            25444.011      0.0097623438 
    235000  -10714.089      135.74301     -10578.346      235            25548.641      0.0095574547 
    236000  -10712.233      132.05889     -10580.174      236            25654.061      0.0094859256 
    237000  -10721.958      131.96848     -10589.99       237            25761.157      0.0093373532 
    238000  -10714.362      138.37781     -10575.984      238            25868.15       0.0093464234 
    239000  -10718.291      128.27202     -10590.019      239            25975.396      0.0093243862 
    240000  -10713.262      133.42249     -10579.84       240            26080.246      0.0095374625 
    241000  -10710.086      132.78466     -10577.302      241            26183.889      0.0096484198 
    242000  -10715.235      133.36878     -10581.866      242            26286.943      0.0097037344 
    243000  -10711.189      132.67596     -10578.513      243            26389.111      0.009787779  
    244000  -10713.185      138.9183      -10574.266      244            26491.22       0.0097934569 
    245000  -10714.594      129.07991     -10585.514      245            26593.184      0.0098073455 
    246000  -10712.19       133.43734     -10578.753      246            26695.813      0.0097438574 
    247000  -10715.169      135.15856     -10580.011      247            26799.772      0.0096191624 
    248000  -10716.313      133.12204     -10583.191      248            26903.47       0.0096433754 
    249000  -10712.672      141.51815     -10571.154      249            27008.054      0.0095617094 
    250000  -10718.191      136.47179     -10581.719      250            27112.959      0.0095324543 
    251000  -10710.009      134.29449     -10575.715      251            27217.788      0.0095393152 
    252000  -10707.771      128.74324     -10579.028      252            27324.173      0.0093997893 
    253000  -10708.978      135.68635     -10573.292      253            27432.271      0.0092508962 
    254000  -10712.134      127.41264     -10584.722      254            27543.079      0.0090246442 
    255000  -10709.973      136.71486     -10573.259      255            27655.985      0.0088569319 
    256000  -10717.327      134.4738      -10582.854      256            27767.506      0.008966891  
    257000  -10718.479      135.45766     -10583.021      257            27880.91       0.008818033  
    258000  -10717.339      133.519       -10583.82       258            27995.442      0.0087312026 
    259000  -10713.768      132.90797     -10580.86       259            28108.023      0.0088825168 
    260000  -10714.558      129.74878     -10584.809      260            28214.943      0.009352752  
    261000  -10717.179      130.17367     -10587.006      261            28320.189      0.0095015613 
    262000  -10718.751      134.74293     -10584.008      262            28424.488      0.0095877706 
    263000  -10715.282      134.52435     -10580.758      263            28528.446      0.0096193165 
    264000  -10717.806      130.44217     -10587.364      264            28633.176      0.0095483677 
    265000  -10714.588      137.71748     -10576.87       265            28738.196      0.0095219744 
    266000  -10713.666      128.19952     -10585.467      266            28841.514      0.0096788485 
    267000  -10715.444      131.59317     -10583.851      267            28945.522      0.0096146719 
    268000  -10719.168      131.65851     -10587.509      268            29051.563      0.00943028   
    269000  -10707.199      134.32135     -10572.878      269            29157.061      0.0094788763 
    270000  -10708.96       127.99494     -10580.965      270            29261.425      0.009581826  
    271000  -10716.654      135.58238     -10581.072      271            29365.184      0.0096377605 
    272000  -10711.835      134.46278     -10577.372      272            29469.038      0.0096288902 
    273000  -10719.419      133.68679     -10585.732      273            29572.713      0.0096455069 
    274000  -10708.842      132.59343     -10576.249      274            29676.146      0.0096681235 
    275000  -10716.964      133.62417     -10583.34       275            29781.249      0.0095144188 
    276000  -10716.339      135.14978     -10581.189      276            29885.979      0.0095484326 
    277000  -10711.617      131.26175     -10580.355      277            29997.81       0.0089420287 
    278000  -10716.385      128.96175     -10587.424      278            30107.327      0.009131013  
    279000  -10711.24       131.38678     -10579.853      279            30221.277      0.0087757596 
    280000  -10718.426      127.09846     -10591.328      280            30334.525      0.0088302058 
    281000  -10713.27       135.70762     -10577.562      281            30449.544      0.0086941629 
    282000  -10716.237      134.75839     -10581.479      282            30563.214      0.0087974451 
    283000  -10709.802      129.94073     -10579.861      283            30672.747      0.0091296721 
    284000  -10717.097      135.81385     -10581.283      284            30776.831      0.0096075731 
    285000  -10717.265      131.82893     -10585.436      285            30880.261      0.0096684282 
    286000  -10710.853      134.2762      -10576.577      286            30982.867      0.0097460154 
    287000  -10713.517      128.94457     -10584.572      287            31085.605      0.0097335046 
    288000  -10709.978      133.25065     -10576.727      288            31189.033      0.0096685759 
    289000  -10712.707      129.12769     -10583.579      289            31291.869      0.0097241493 
    290000  -10714.473      139.55964     -10574.913      290            31394.654      0.009729065  
    291000  -10713.991      132.2046      -10581.787      291            31497.762      0.0096986026 
    292000  -10713.801      133.70145     -10580.1        292            31601.288      0.0096593538 
    293000  -10706.808      130.76254     -10576.046      293            31705.084      0.0096343546 
    294000  -10721.217      139.07723     -10582.14       294            31808.667      0.0096540997 
    295000  -10710.663      139.12916     -10571.534      295            31912.805      0.0096026335 
    296000  -10716.482      136.86974     -10579.612      296            32017.806      0.0095236914 
    297000  -10715.075      124.74809     -10590.327      297            32121.588      0.0096355816 
    298000  -10713.727      137.0349      -10576.692      298            32225.737      0.0096015952 
    299000  -10715.933      129.13833     -10586.795      299            32330.146      0.0095777799 
    300000  -10708.554      130.45038     -10578.104      300            32435.92       0.0094541075 
    301000  -10722.837      136.79738     -10586.04       301            32543.43       0.0093014576 
    302000  -10713.172      136.05155     -10577.121      302            32652.842      0.0091397261 
    303000  -10716.307      132.88472     -10583.422      303            32764.401      0.0089638636 
    304000  -10713.277      131.90716     -10581.37       304            32880.894      0.0085842403 
    305000  -10718.538      138.23704     -10580.301      305            32995.124      0.0087542456 
    306000  -10707.697      132.96999     -10574.727      306            33110.75       0.0086485657 
    307000  -10710.987      136.4144      -10574.573      307            33223.809      0.0088449943 
    308000  -10718.068      135.73608     -10582.332      308            33332.049      0.0092387093 
    309000  -10715.328      131.51836     -10583.81       309            33441.069      0.009172652  
    310000  -10713.921      128.45321     -10585.467      310            33545.84       0.0095445649 
    311000  -10714.424      137.53738     -10576.886      311            33650.343      0.0095690901 
    312000  -10711.507      129.97312     -10581.534      312            33754.354      0.0096143706 
    313000  -10710.729      132.11074     -10578.619      313            33858.719      0.0095818148 
    314000  -10714.824      136.05005     -10578.774      314            33963.188      0.0095721917 
    315000  -10705.588      136.16394     -10569.424      315            34067.075      0.0096258821 
    316000  -10711.223      133.47566     -10577.747      316            34170.915      0.0096301151 
    317000  -10716.186      137.76663     -10578.42       317            34274.344      0.0096685463 
    318000  -10714.377      127.17314     -10587.204      318            34377.752      0.0096704108 
    319000  -10708.271      138.521       -10569.75       319            34481.283      0.0096589534 
    320000  -10712.266      128.27543     -10583.99       320            34584.682      0.0096712582 
    321000  -10709.398      131.29784     -10578.1        321            34688.219      0.0096583919 
    322000  -10720.66       131.31575     -10589.344      322            34791.742      0.0096596457 
    323000  -10710.391      133.61442     -10576.777      323            34894.98       0.0096863366 
    324000  -10718.081      132.01963     -10586.062      324            34998.334      0.009675484  
    325000  -10710.786      133.2122      -10577.574      325            35101.816      0.0096635838 
    326000  -10714.269      130.55233     -10583.717      326            35205.259      0.0096671471 
    327000  -10713.213      137.25209     -10575.961      327            35309.045      0.0096351669 
    328000  -10720.421      130.87197     -10589.549      328            35412.599      0.009656877  
    329000  -10714.473      135.43139     -10579.041      329            35515.789      0.0096908354 
    330000  -10712.556      131.06884     -10581.488      330            35619.317      0.009659213  
    331000  -10709.039      135.13459     -10573.904      331            35722.928      0.0096514651 
    332000  -10711.659      132.89537     -10578.764      332            35826.652      0.009640991  
    333000  -10722.6        133.36382     -10589.237      333            35930.62       0.0096183644 
    334000  -10712.755      134.1831      -10578.572      334            36034.861      0.0095931235 
    335000  -10718.024      133.18078     -10584.843      335            36139.398      0.009566002  
    336000  -10712.171      140.2885      -10571.882      336            36244.458      0.0095183873 
    337000  -10714.324      130.46041     -10583.863      337            36348.153      0.0096436358 
    338000  -10711.341      135.88477     -10575.457      338            36450.556      0.0097653595 
    339000  -10713.333      131.69227     -10581.641      339            36553.79       0.0096867466 
    340000  -10718.678      131.33787     -10587.341      340            36657.505      0.0096417462 
    341000  -10714.11       136.39367     -10577.716      341            36761.495      0.009616315  
    342000  -10715.294      131.32342     -10583.97       342            36865.192      0.0096435353 
    343000  -10711.137      136.4063      -10574.731      343            36969.086      0.0096251866 
    344000  -10715.315      131.65081     -10583.664      344            37073.367      0.0095894368 
    345000  -10713.502      136.8469      -10576.655      345            37177.99       0.0095581543 
    346000  -10714.74       136.17249     -10578.567      346            37282.114      0.0096039327 
    347000  -10710.318      130.83416     -10579.484      347            37386.555      0.0095747738 
    348000  -10705.922      131.20057     -10574.721      348            37491.338      0.0095435588 
    349000  -10719.59       133.3618      -10586.228      349            37596.433      0.0095152042 
    350000  -10712.061      130.39238     -10581.669      350            37701.258      0.0095396596 
    351000  -10716.624      135.95316     -10580.67       351            37806.287      0.0095212195 
    352000  -10712.993      136.88169     -10576.112      352            37910.804      0.0095678069 
    353000  -10712.776      135.18288     -10577.593      353            38015.122      0.0095860793 
    354000  -10714.365      138.30208     -10576.063      354            38120.778      0.0094646919 
    355000  -10717.911      132.52743     -10585.384      355            38226.349      0.009472278  
    356000  -10717.717      129.6398      -10588.077      356            38332.832      0.0093911813 
    357000  -10716.382      132.0845      -10584.297      357            38438.046      0.0095044501 
    358000  -10717.188      133.51478     -10583.673      358            38544.749      0.009371771  
    359000  -10712.991      139.53076     -10573.46       359            38652.369      0.0092919351 
    360000  -10712.817      133.85818     -10578.959      360            38760.825      0.0092203673 
    361000  -10721.427      130.24651     -10591.18       361            38870.179      0.0091446223 
    362000  -10715.242      130.87428     -10584.368      362            38980.003      0.0091054953 
    363000  -10714.829      136.41671     -10578.412      363            39089.894      0.0090999001 
    364000  -10719.6        136.42607     -10583.174      364            39198.49       0.0092084187 
    365000  -10717.081      131.31397     -10585.767      365            39306.069      0.0092955319 
    366000  -10713.872      137.38752     -10576.484      366            39411.165      0.0095151063 
    367000  -10720.632      132.61381     -10588.018      367            39515.968      0.0095416789 
    368000  -10715.58       134.77845     -10580.801      368            39620.659      0.0095519235 
    369000  -10714.951      135.69173     -10579.259      369            39724.172      0.0096606527 
    370000  -10714.339      138.05926     -10576.28       370            39827.861      0.0096442308 
    371000  -10716.548      132.49372     -10584.054      371            39933.291      0.0094849508 
    372000  -10715.833      137.52766     -10578.305      372            40037.063      0.0096364818 
    373000  -10715.299      131.49453     -10583.804      373            40140.084      0.0097068111 
    374000  -10713.477      138.38023     -10575.097      374            40243.269      0.0096912781 
    375000  -10717.534      132.17115     -10585.363      375            40346.008      0.0097333738 
    376000  -10717.528      135.79559     -10581.732      376            40450.119      0.009605147  
    377000  -10718.987      133.10619     -10585.881      377            40553.76       0.0096487623 
    378000  -10714.908      134.76088     -10580.147      378            40656.723      0.0097121679 
    379000  -10717.137      131.69115     -10585.445      379            40759.817      0.0096999195 
    380000  -10710.583      131.77472     -10578.808      380            40863.147      0.0096777033 
    381000  -10711.61       131.692       -10579.918      381            40967.108      0.0096189937 
    382000  -10718.855      132.17147     -10586.684      382            41071.165      0.0096100913 
    383000  -10718.319      132.76254     -10585.557      383            41174.909      0.0096391106 
    384000  -10708.414      127.9691      -10580.445      384            41279.219      0.0095868612 
    385000  -10714.06       133.68002     -10580.38       385            41383.495      0.0095899333 
    386000  -10718.381      131.96392     -10586.418      386            41489.083      0.0094707767 
    387000  -10712.966      137.73353     -10575.232      387            41595.733      0.0093764269 
    388000  -10713.855      137.06361     -10576.792      388            41704.775      0.0091707915 
    389000  -10718.999      129.47794     -10589.521      389            41816.958      0.0089140152 
    390000  -10711.16       132.60183     -10578.558      390            41928.295      0.0089817662 
    391000  -10719.159      136.76266     -10582.396      391            42038.015      0.0091140376 
    392000  -10715.209      134.54425     -10580.664      392            42145.899      0.009269272  
    393000  -10718.658      130.64463     -10588.013      393            42253.055      0.0093321622 
    394000  -10712.705      132.23378     -10580.471      394            42362.689      0.009121266  
    395000  -10708.325      136.15355     -10572.171      395            42466.819      0.0096033942 
    396000  -10716.066      134.25626     -10581.81       396            42573.476      0.0093758557 
    397000  -10712.216      132.51768     -10579.699      397            42680.647      0.00933086   
    398000  -10713.735      131.52716     -10582.208      398            42785.6        0.0095280911 
    399000  -10714.55       131.44852     -10583.102      399            42890.763      0.0095090376 
    400000  -10710.021      138.37599     -10571.645      400            42994.746      0.0096169581 
    401000  -10710.863      133.35316     -10577.51       401            43097.881      0.0096960678 
    402000  -10711.581      131.5363      -10580.045      402            43200.114      0.0097815781 
    403000  -10717.339      137.3243      -10580.015      403            43302.781      0.0097402222 
    404000  -10716.177      135.72411     -10580.453      404            43405.788      0.0097080446 
    405000  -10714.574      127.30984     -10587.264      405            43509.02       0.0096869482 
    406000  -10717.418      132.806       -10584.612      406            43612.917      0.0096248597 
    407000  -10719.686      133.38368     -10586.303      407            43716.67       0.0096383013 
    408000  -10711.59       138.86145     -10572.728      408            43819.879      0.0096890886 
    409000  -10716.225      132.9895      -10583.235      409            43922.103      0.0097823944 
    410000  -10711.673      132.04554     -10579.628      410            44024.093      0.0098048951 
    411000  -10712.849      135.10101     -10577.748      411            44126.276      0.0097864113 
    412000  -10713.086      132.50144     -10580.585      412            44228.486      0.0097837466 
    413000  -10714.368      138.704       -10575.664      413            44330.68       0.0097852878 
    414000  -10715.93       131.77421     -10584.156      414            44432.97       0.0097761452 
    415000  -10708.611      134.24237     -10574.368      415            44535.295      0.0097727781 
    416000  -10715.312      130.06155     -10585.25       416            44639.634      0.0095841483 
    417000  -10716.346      133.35254     -10582.994      417            44743.749      0.0096047523 
    418000  -10710.668      139.0635      -10571.605      418            44848.041      0.0095884739 
    419000  -10721.534      134.70258     -10586.831      419            44951.838      0.0096341702 
    420000  -10710.089      135.13295     -10574.956      420            45055.45       0.0096514335 
    421000  -10719.2        131.50695     -10587.693      421            45158.278      0.0097250058 
    422000  -10711.199      137.22727     -10573.972      422            45262.258      0.0096171536 
    423000  -10709.125      131.26101     -10577.864      423            45369.719      0.0093057097 
    424000  -10715.533      132.712       -10582.821      424            45480.274      0.0090452933 
    425000  -10715.753      140.99932     -10574.754      425            45590.948      0.0090355307 
    426000  -10710.89       133.32048     -10577.57       426            45695.776      0.0095394149 
    427000  -10715.673      134.57944     -10581.093      427            45798.759      0.0097103726 
    428000  -10707.529      129.94049     -10577.589      428            45901.065      0.0097745831 
    429000  -10716.017      136.71053     -10579.306      429            46003.927      0.0097218327 
    430000  -10714.455      133.86148     -10580.594      430            46107.238      0.0096794904 
    431000  -10705.438      133.51086     -10571.928      431            46211.573      0.0095845185 
    432000  -10717.573      136.36579     -10581.208      432            46316.276      0.0095508173 
    433000  -10717.107      134.87328     -10582.233      433            46419.15       0.0097206475 
    434000  -10718.324      134.9491      -10583.375      434            46521.979      0.0097248445 
    435000  -10715.767      134.58344     -10581.183      435            46625.481      0.0096616266 
    436000  -10711.445      131.85193     -10579.593      436            46730.2        0.0095493873 
    437000  -10717.625      136.19567     -10581.429      437            46834.757      0.0095642012 
    438000  -10717.573      136.76407     -10580.809      438            46939.307      0.0095647484 
    439000  -10709.749      129.29139     -10580.458      439            47042.841      0.0096586532 
    440000  -10720.157      138.72513     -10581.432      440            47145.902      0.0097029683 
    441000  -10712.081      134.36271     -10577.718      441            47249.073      0.0096927325 
    442000  -10719.051      136.9321      -10582.119      442            47354.515      0.0094838506 
    443000  -10712.705      135.01977     -10577.685      443            47461.863      0.0093154874 
    444000  -10713.227      135.63033     -10577.597      444            47574.084      0.0089110107 
    445000  -10718.315      131.90869     -10586.406      445            47688.928      0.008707465  
    446000  -10714.98       133.81252     -10581.168      446            47801.461      0.0088862538 
    447000  -10720.267      135.83411     -10584.433      447            47914.885      0.0088165165 
    448000  -10708.875      130.17553     -10578.699      448            48025.435      0.0090456497 
    449000  -10719.284      131.93923     -10587.345      449            48134.547      0.0091648608 
    450000  -10717.672      132.02582     -10585.646      450            48241.705      0.0093320483 
    451000  -10713.836      128.25061     -10585.585      451            48344.622      0.0097165787 
    452000  -10723.265      133.26905     -10589.996      452            48447.238      0.0097450445 
    453000  -10715.694      136.65508     -10579.039      453            48549.958      0.0097352265 
    454000  -10717.491      131.56474     -10585.926      454            48653.918      0.0096191081 
    455000  -10712.513      132.4805      -10580.032      455            48758.644      0.0095486984 
    456000  -10723.397      133.16304     -10590.234      456            48861.793      0.0096947579 
    457000  -10713.916      135.46698     -10578.449      457            48964.481      0.0097381536 
    458000  -10717.594      135.36686     -10582.227      458            49066.945      0.0097595355 
    459000  -10712.027      135.12179     -10576.905      459            49170.211      0.0096837662 
    460000  -10707.875      127.93128     -10579.943      460            49274.476      0.0095909282 
    461000  -10717.037      128.77453     -10588.262      461            49379.292      0.009540572  
    462000  -10715.045      137.03648     -10578.009      462            49484.062      0.0095447224 
    463000  -10721.294      132.2708      -10589.023      463            49589.613      0.0094740101 
    464000  -10712.336      131.00329     -10581.332      464            49694.462      0.0095375285 
    465000  -10712.26       137.46007     -10574.8        465            49798.641      0.0095988963 
    466000  -10712.05       134.39531     -10577.655      466            49903.605      0.0095270786 
    467000  -10717.928      133.07527     -10584.853      467            50010.169      0.0093840333 
    468000  -10718.685      136.63327     -10582.052      468            50115.441      0.0094991817 
    469000  -10716.517      135.85367     -10580.663      469            50222.377      0.0093514009 
    470000  -10708.193      133.6492      -10574.543      470            50331.659      0.0091506097 
    471000  -10715.272      136.78286     -10578.489      471            50444.655      0.0088499213 
    472000  -10719.778      131.78736     -10587.991      472            50560.114      0.0086610595 
    473000  -10711.546      133.75401     -10577.792      473            50673.61       0.0088109082 
    474000  -10717.467      133.04454     -10584.423      474            50793.617      0.0083328252 
    475000  -10716.795      129.41992     -10587.375      475            50913.213      0.008361457  
    476000  -10713.272      134.48502     -10578.787      476            51030.129      0.0085532091 
    477000  -10713.523      131.6309      -10581.892      477            51146.336      0.0086052815 
    478000  -10710.081      133.50934     -10576.572      478            51263.352      0.0085458941 
    479000  -10718.052      136.61905     -10581.433      479            51380.234      0.0085556397 
    480000  -10713.436      132.89317     -10580.543      480            51496.62       0.0085920381 
    481000  -10720.064      136.04837     -10584.016      481            51609.757      0.0088388857 
    482000  -10716.372      134.42349     -10581.948      482            51723.36       0.0088026037 
    483000  -10715.205      135.22548     -10579.979      483            51837.401      0.0087687802 
    484000  -10712.323      135.52591     -10576.798      484            51951.357      0.0087752678 
    485000  -10715.834      133.68654     -10582.148      485            52065.104      0.0087914289 
    486000  -10709.245      136.07536     -10573.169      486            52176.85       0.0089488938 
    487000  -10717.069      133.8804      -10583.188      487            52290.183      0.0088235639 
    488000  -10714.075      145.57643     -10568.498      488            52407.299      0.0085385254 
    489000  -10716.135      129.25329     -10586.881      489            52525.892      0.0084322093 
    490000  -10713.139      135.03027     -10578.109      490            52641.342      0.0086617774 
    491000  -10708.38       138.87587     -10569.504      491            52753.909      0.0088835788 
    492000  -10714.648      133.68825     -10580.96       492            52865.03       0.0089991982 
    493000  -10716.775      138.95761     -10577.817      493            52977.577      0.0088851863 
    494000  -10718.572      131.26607     -10587.306      494            53090.747      0.0088362539 
    495000  -10715.382      135.69036     -10579.691      495            53203.663      0.008856121  
    496000  -10709.504      131.85446     -10577.649      496            53319.236      0.0086525817 
    497000  -10714.436      132.19168     -10582.244      497            53432.309      0.0088438232 
    498000  -10717.306      141.80653     -10575.499      498            53544.534      0.008910704  
    499000  -10716.609      131.48386     -10585.125      499            53658.231      0.0087952766 
    500000  -10707.833      139.68022     -10568.153      500            53768.945      0.0090322555 
    501000  -10711.421      129.25025     -10582.17       501            53880.489      0.0089650813 
    502000  -10719.555      134.56114     -10584.994      502            53994.343      0.0087832203 
    503000  -10713.395      130.42406     -10582.971      503            54106.825      0.0088902757 
    504000  -10716.31       136.76947     -10579.541      504            54220.686      0.0087826783 
    505000  -10717.865      138.23143     -10579.634      505            54332.879      0.0089131394 
    506000  -10716.012      142.21381     -10573.798      506            54442.326      0.009136884  
    507000  -10719.126      129.21237     -10589.914      507            54556.509      0.0087578661 
    508000  -10711.632      133.98462     -10577.647      508            54668.702      0.0089131936 
    509000  -10716.655      132.89144     -10583.764      509            54777.634      0.0091800308 
    510000  -10709.195      134.00071     -10575.194      510            54881.086      0.0096663882 
    511000  -10721.972      130.58084     -10591.391      511            54984.159      0.009701865  
    512000  -10710.485      136.57178     -10573.913      512            55085.903      0.0098285843 
    513000  -10715.36       129.75098     -10585.609      513            55187.631      0.0098300535 
    514000  -10714.517      139.2762      -10575.241      514            55290.572      0.0097143297 
    515000  -10712.209      134.96799     -10577.241      515            55394.084      0.0096607292 
    516000  -10709.872      133.43817     -10576.433      516            55497.533      0.0096666468 
    517000  -10718.825      132.8931      -10585.932      517            55601.591      0.0096099509 
    518000  -10712.105      130.17981     -10581.925      518            55705.612      0.0096134912 
    519000  -10717.22       131.97012     -10585.25       519            55809.692      0.0096079821 
    520000  -10710.799      130.30395     -10580.495      520            55913.474      0.0096355915 
    521000  -10708.31       137.35351     -10570.956      521            56017.141      0.0096462203 
    522000  -10717.564      136.10847     -10581.456      522            56120.721      0.0096543771 
    523000  -10712.767      134.04557     -10578.721      523            56223.729      0.0097080043 
    524000  -10714.797      130.77106     -10584.026      524            56326.883      0.0096942375 
    525000  -10710.783      136.76385     -10574.019      525            56429.397      0.009754782  
    526000  -10714.205      131.01393     -10583.191      526            56532.06       0.0097406205 
    527000  -10716.874      129.79443     -10587.08       527            56634.692      0.0097435777 
    528000  -10713.333      132.592       -10580.741      528            56737.219      0.0097535341 
    529000  -10721.899      131.08857     -10590.81       529            56839.854      0.009743211  
    530000  -10713.546      135.80727     -10577.738      530            56942.683      0.0097248544 
    531000  -10710.216      134.49317     -10575.723      531            57046.197      0.009660552  
    532000  -10714.572      134.35407     -10580.218      532            57149.001      0.0097272338 
    533000  -10711.416      133.79997     -10577.616      533            57252.734      0.0096401939 
    534000  -10708.307      136.41416     -10571.893      534            57357.063      0.0095850438 
    535000  -10714.14       129.58864     -10584.551      535            57461.333      0.0095905145 
    536000  -10711.822      136.28368     -10575.538      536            57566.324      0.0095245441 
    537000  -10712.833      134.20561     -10578.628      537            57671.546      0.0095037433 
    538000  -10718.047      135.91585     -10582.132      538            57776.025      0.0095712943 
    539000  -10715.45       136.07673     -10579.374      539            57879.838      0.009632706  
    540000  -10717.88       131.5114      -10586.369      540            57983.112      0.0096830437 
    541000  -10712.055      138.26114     -10573.794      541            58086.658      0.0096575099 
    542000  -10716.056      130.06362     -10585.992      542            58193.899      0.0093247727 
    543000  -10713.017      136.68138     -10576.336      543            58300.246      0.0094031618 
    544000  -10718.921      134.19129     -10584.73       544            58406.924      0.0093739956 
    545000  -10716.816      146.42161     -10570.395      545            58511.67       0.0095469865 
    546000  -10715.669      131.52159     -10584.147      546            58618.606      0.0093513314 
    547000  -10717.066      132.06589     -10585          547            58729.932      0.0089826363 
    548000  -10716.353      132.67931     -10583.673      548            58841.828      0.0089369024 
    549000  -10716.787      130.61792     -10586.169      549            58952.172      0.0090625744 
    550000  -10712.6        133.5128      -10579.087      550            59064.694      0.0088871467 
    551000  -10723.667      131.94248     -10591.725      551            59177.33       0.0088781379 
    552000  -10714.186      136.09976     -10578.086      552            59291.035      0.0087946921 
    553000  -10711.919      128.83698     -10583.083      553            59407.415      0.0085925181 
    554000  -10711.483      129.65302     -10581.83       554            59525.067      0.0084996303 
    555000  -10720.86       134.48311     -10586.377      555            59639.32       0.0087525456 
    556000  -10706.7        128.9324      -10577.767      556            59753.899      0.0087275498 
    557000  -10715.899      132.57948     -10583.319      557            59868.898      0.0086957923 
    558000  -10708.156      135.17387     -10572.982      558            59987.571      0.0084265046 
    559000  -10714.477      130.71763     -10583.76       559            60105.918      0.008449709  
    560000  -10718.322      132.28178     -10586.04       560            60216.276      0.0090614231 
    561000  -10717.975      141.4262      -10576.549      561            60322.208      0.0094400487 
    562000  -10715.457      133.0651      -10582.392      562            60426.271      0.0096095415 
    563000  -10713.12       130.99209     -10582.128      563            60528.827      0.0097507178 
    564000  -10713.385      140.20426     -10573.181      564            60630.52       0.0098335583 
    565000  -10718.249      136.02535     -10582.224      565            60730.943      0.0099578968 
    566000  -10714.428      135.18995     -10579.238      566            60832.274      0.0098686336 
    567000  -10715.539      133.89641     -10581.642      567            60933.459      0.0098828919 
    568000  -10715.593      130.52276     -10585.07       568            61035.903      0.0097614234 
    569000  -10720.689      135.87761     -10584.811      569            61138.132      0.0097819364 
    570000  -10718.963      139.8174      -10579.145      570            61240.203      0.009797119  
    571000  -10716.821      135.8002      -10581.021      571            61342.326      0.0097920835 
    572000  -10710.888      133.25408     -10577.634      572            61444.35       0.0098016693 
    573000  -10715.398      133.7042      -10581.694      573            61547.141      0.0097284778 
    574000  -10712.727      141.10102     -10571.626      574            61655.902      0.0091944948 
    575000  -10717.563      132.48115     -10585.082      575            61763.545      0.009289954  
    576000  -10715.543      125.74082     -10589.802      576            61874.212      0.0090361089 
    577000  -10712.236      136.92789     -10575.308      577            61985.119      0.0090165543 
    578000  -10716.532      134.54646     -10581.985      578            62091.543      0.0093963328 
    579000  -10715.832      132.50095     -10583.331      579            62200.506      0.0091774644 
    580000  -10715.526      138.08145     -10577.445      580            62304.039      0.0096587196 
    581000  -10716.485      136.41347     -10580.071      581            62407.233      0.0096905675 
    582000  -10708.49       133.13674     -10575.354      582            62509.003      0.0098260229 
    583000  -10719.478      131.20653     -10588.272      583            62610.217      0.0098800468 
    584000  -10713.268      135.77109     -10577.497      584            62711.101      0.0099123881 
    585000  -10717.457      129.56213     -10587.895      585            62812.35       0.0098766862 
    586000  -10711.405      135.58899     -10575.816      586            62914.992      0.009742601  
    587000  -10716.293      130.50306     -10585.79       587            63017.817      0.0097252435 
    588000  -10716.045      135.50459     -10580.54       588            63120.848      0.0097057827 
    589000  -10716.347      134.92222     -10581.425      589            63223.922      0.0097017859 
    590000  -10711.854      129.03319     -10582.821      590            63326.566      0.009742412  
    591000  -10719.087      128.48545     -10590.602      591            63428.712      0.0097898629 
    592000  -10713.563      127.53688     -10586.027      592            63529.775      0.0098949067 
    593000  -10716.115      138.46994     -10577.645      593            63630.379      0.0099398848 
    594000  -10715.369      130.12243     -10585.246      594            63730.856      0.0099525884 
    595000  -10710.883      133.77311     -10577.11       595            63831.915      0.0098951381 
    596000  -10713.139      133.28446     -10579.855      596            63933.068      0.0098860746 
    597000  -10714.888      132.71012     -10582.178      597            64033.768      0.009930482  
    598000  -10719.487      138.00182     -10581.485      598            64135.179      0.0098608614 
    599000  -10712.581      137.0304      -10575.551      599            64236.719      0.0098483218 
    600000  -10717.611      133.08216     -10584.529      600            64338.471      0.0098278358 
    601000  -10709.397      134.15167     -10575.246      601            64440.417      0.009809084  
    602000  -10714.371      129.81674     -10584.555      602            64542.816      0.009765746  
    603000  -10715.784      138.87788     -10576.906      603            64644.979      0.009788258  
    604000  -10716.152      134.56323     -10581.589      604            64747.129      0.0097894967 
    605000  -10713.834      137.78001     -10576.053      605            64850.993      0.0096279898 
    606000  -10718.311      137.05298     -10581.258      606            64954.767      0.0096363131 
    607000  -10710.905      133.32414     -10577.581      607            65060.811      0.0094301167 
    608000  -10714.92       135.98835     -10578.932      608            65167.922      0.0093360811 
    609000  -10714.87       135.73665     -10579.133      609            65275.838      0.0092664667 
    610000  -10716.018      134.61253     -10581.405      610            65385.803      0.0090938036 
    611000  -10715.022      131.3724      -10583.65       611            65501.652      0.0086319541 
    612000  -10717.73       133.315       -10584.415      612            65612.811      0.0089960599 
    613000  -10712.309      133.10438     -10579.205      613            65721.47       0.0092031367 
    614000  -10716.77       130.64124     -10586.129      614            65831.326      0.0091028135 
    615000  -10714.584      133.11794     -10581.466      615            65948.18       0.0085576917 
    616000  -10715.503      134.22153     -10581.281      616            66063.885      0.0086426681 
    617000  -10719.704      133.25886     -10586.445      617            66178.194      0.0087481829 
    618000  -10710.602      142.82509     -10567.777      618            66289.974      0.0089461815 
    619000  -10719.503      134.66695     -10584.836      619            66396.606      0.0093780183 
    620000  -10715.871      130.95608     -10584.915      620            66500.999      0.009579186  
    621000  -10714.757      140.53334     -10574.223      621            66605.026      0.0096129517 
    622000  -10717.237      133.17511     -10584.062      622            66708.783      0.0096378601 
    623000  -10715.779      138.71657     -10577.063      623            66812.902      0.0096043954 
    624000  -10715.11       136.88689     -10578.223      624            66915.961      0.0097032059 
    625000  -10719.844      138.17438     -10581.67       625            67019.099      0.0096957021 
    626000  -10712.187      135.70623     -10576.48       626            67123.35       0.0095922399 
    627000  -10720.419      135.6701      -10584.749      627            67227.264      0.009623345  
    628000  -10714.58       132.30416     -10582.276      628            67329.809      0.0097518367 
    629000  -10716.162      129.66279     -10586.5        629            67431.799      0.0098048387 
    630000  -10708.648      138.82536     -10569.822      630            67534.163      0.0097691174 
    631000  -10717.083      133.05519     -10584.027      631            67636.582      0.0097637693 
    632000  -10711.658      127.77107     -10583.887      632            67738.401      0.0098214163 
    633000  -10714.349      132.60092     -10581.748      633            67840.215      0.0098217804 
    634000  -10721.398      130.6421      -10590.756      634            67942.125      0.0098125633 
    635000  -10712.174      134.3796      -10577.794      635            68043.619      0.009852797  
    636000  -10719.73       130.73539     -10588.995      636            68146.043      0.0097633468 
    637000  -10711.521      134.81844     -10576.703      637            68249.753      0.0096423278 
    638000  -10715.867      131.56333     -10584.304      638            68353.991      0.0095933814 
    639000  -10716.949      133.55404     -10583.395      639            68459.993      0.0094337816 
    640000  -10712.989      135.14749     -10577.841      640            68567.018      0.0093436463 
    641000  -10721.016      130.24568     -10590.77       641            68671.514      0.0095696915 
    642000  -10715.68       139.54686     -10576.133      642            68777.816      0.0094072103 
    643000  -10710.908      135.56315     -10575.345      643            68881.352      0.0096584381 
    644000  -10713.394      131.51185     -10581.882      644            68983.577      0.0097824025 
    645000  -10713.669      133.77955     -10579.89       645            69085.842      0.0097784993 
    646000  -10709.951      138.5275      -10571.424      646            69187.812      0.0098067484 
    647000  -10715.213      134.08875     -10581.124      647            69290.355      0.0097520482 
    648000  -10717.704      135.67364     -10582.03       648            69393.405      0.0097039912 
    649000  -10717.923      135.11538     -10582.808      649            69496.746      0.0096767517 
    650000  -10716.598      132.88724     -10583.711      650            69600.004      0.0096844264 
    651000  -10709.952      133.07939     -10576.873      651            69701.834      0.0098203206 
    652000  -10717.631      135.6381      -10581.993      652            69803.443      0.009841643  
    653000  -10716.352      134.44347     -10581.909      653            69905.065      0.0098404042 
    654000  -10719.085      133.05553     -10586.029      654            70007.238      0.0097872782 
    655000  -10712.094      131.10384     -10580.99       655            70109.692      0.009760476  
    656000  -10711.815      132.53496     -10579.28       656            70211.734      0.009799912  
    657000  -10719.523      136.62584     -10582.897      657            70313.68       0.0098091534 
    658000  -10715.285      137.66105     -10577.624      658            70415.626      0.009809134  
    659000  -10721.183      131.36844     -10589.814      659            70516.998      0.0098646557 
    660000  -10717.027      140.44297     -10576.584      660            70618.148      0.0098862659 
    661000  -10719.595      133.97041     -10585.625      661            70719.831      0.0098344834 
    662000  -10716.256      135.21355     -10581.042      662            70821.064      0.009878218  
    663000  -10709.229      136.3839      -10572.845      663            70923.256      0.0097855026 
    664000  -10716.651      134.62246     -10582.029      664            71025.535      0.0097771364 
    665000  -10717.601      138.36203     -10579.239      665            71128.702      0.0096930484 
    666000  -10711.262      132.17318     -10579.089      666            71232.031      0.0096778361 
    667000  -10715.008      131.4252      -10583.583      667            71336          0.009618235  
    668000  -10716.974      138.52125     -10578.453      668            71440.834      0.0095388866 
    669000  -10719.304      131.36064     -10587.944      669            71546.38       0.0094745695 
    670000  -10709.957      134.74459     -10575.212      670            71651.993      0.0094685167 
    671000  -10713.615      131.99839     -10581.616      671            71759.092      0.0093371888 
    672000  -10710.909      133.89581     -10577.014      672            71866.78       0.0092860692 
    673000  -10717.378      129.36863     -10588.009      673            71971.74       0.0095274193 
    674000  -10717.907      136.9773      -10580.929      674            72075.845      0.0096056964 
    675000  -10713.321      130.88635     -10582.435      675            72180.387      0.0095655052 
    676000  -10720.77       137.15854     -10583.611      676            72284.591      0.0095965726 
    677000  -10716.277      135.43035     -10580.847      677            72390.283      0.0094614301 
    678000  -10721.194      129.20298     -10591.991      678            72496.629      0.009403249  
    679000  -10713.041      136.25259     -10576.789      679            72602.128      0.0094787658 
    680000  -10715.109      130.76954     -10584.34       680            72707.428      0.009496707  
    681000  -10720.586      131.46174     -10589.124      681            72810.53       0.009699126  
    682000  -10714.937      136.75073     -10578.186      682            72914.019      0.0096628969 
    683000  -10724.057      129.54395     -10594.513      683            73016.76       0.0097331808 
    684000  -10709.656      132.72273     -10576.933      684            73122.714      0.0094380699 
    685000  -10713.971      132.29361     -10581.677      685            73230.179      0.0093053441 
    686000  -10711.138      138.41138     -10572.727      686            73336.417      0.0094128132 
    687000  -10709.443      131.63351     -10577.81       687            73442.097      0.0094625663 
    688000  -10713.581      132.24147     -10581.34       688            73552.05       0.0090948056 
    689000  -10716.838      131.98063     -10584.857      689            73661.31       0.009152462  
    690000  -10713.971      137.60602     -10576.365      690            73772.142      0.0090226648 
    691000  -10711.327      139.76762     -10571.559      691            73886.088      0.0087760602 
    692000  -10713.429      131.564       -10581.865      692            73999.098      0.0088488125 
    693000  -10710.407      139.94389     -10570.463      693            74112.94       0.0087840549 
    694000  -10716.937      135.00854     -10581.929      694            74232.472      0.0083659858 
    695000  -10707.326      133.10511     -10574.221      695            74354.236      0.0082126299 
    696000  -10714.41       138.42637     -10575.984      696            74465.436      0.0089928301 
    697000  -10713.88       134.58539     -10579.295      697            74574.099      0.0092027287 
    698000  -10707.622      128.98996     -10578.632      698            74685.14       0.0090056619 
    699000  -10714.026      133.2031      -10580.823      699            74793.135      0.0092597114 
    700000  -10718.113      132.78854     -10585.324      700            74899.232      0.0094253192 
    701000  -10715.842      133.09224     -10582.75       701            75006.63       0.0093111989 
    702000  -10716.038      139.12374     -10576.915      702            75112.737      0.0094244445 
    703000  -10718.399      131.84605     -10586.552      703            75223.655      0.0090156153 
    704000  -10710.318      131.07057     -10579.248      704            75331.745      0.0092516177 
    705000  -10718.605      131.93377     -10586.671      705            75434.96       0.0096884609 
    706000  -10710.857      129.15807     -10581.699      706            75538.301      0.0096766902 
    707000  -10714.651      133.44678     -10581.204      707            75640.363      0.0097979759 
    708000  -10704.256      134.42779     -10569.828      708            75744.528      0.009600154  
    709000  -10717.084      135.85077     -10581.234      709            75847.5        0.0097113973 
    710000  -10709.169      136.09285     -10573.076      710            75950.364      0.00972158   
    711000  -10714.985      136.56781     -10578.417      711            76054.398      0.009612255  
    712000  -10718.883      131.61822     -10587.265      712            76158.577      0.0095988728 
    713000  -10713.952      134.57881     -10579.374      713            76262.883      0.0095871188 
    714000  -10718.932      133.68348     -10585.249      714            76368.132      0.0095012884 
    715000  -10710.753      134.38168     -10576.371      715            76476.337      0.0092417324 
    716000  -10715.328      134.19765     -10581.13       716            76584.226      0.0092687471 
    717000  -10710.814      136.72055     -10574.094      717            76693.027      0.0091911635 
    718000  -10716.155      135.29574     -10580.859      718            76800.526      0.0093023441 
    719000  -10709.779      135.53603     -10574.243      719            76904.777      0.0095922951 
    720000  -10717.906      132.62948     -10585.276      720            77009.188      0.009577482  
    721000  -10714.381      134.32981     -10580.052      721            77113.668      0.009571238  
    722000  -10714.36       132.01237     -10582.348      722            77220.613      0.0093506139 
    723000  -10710.413      136.94912     -10573.464      723            77327.881      0.0093224373 
    724000  -10717.803      135.5007      -10582.302      724            77438.973      0.0090015296 
    725000  -10712.735      131.16455     -10581.57       725            77548.448      0.0091344855 
    726000  -10716.842      138.23273     -10578.61       726            77659.302      0.0090208995 
    727000  -10717.985      129.08865     -10588.896      727            77773.515      0.0087555455 
    728000  -10721.509      136.2459      -10585.263      728            77888.152      0.0087231914 
    729000  -10707.66       136.8741      -10570.786      729            78001.034      0.0088588375 
    730000  -10715.93       132.32563     -10583.604      730            78116.193      0.0086836168 
    731000  -10710.318      131.48918     -10578.828      731            78225.677      0.0091337612 
    732000  -10712.338      134.59323     -10577.745      732            78331.183      0.0094781806 
    733000  -10713.758      134.55498     -10579.203      733            78435.279      0.0096064592 
    734000  -10712.471      127.06513     -10585.405      734            78539.897      0.0095586348 
    735000  -10714.047      134.0519      -10579.995      735            78643.767      0.0096274258 
    736000  -10712.357      129.89236     -10582.465      736            78745.92       0.0097892333 
    737000  -10718.205      129.57104     -10588.634      737            78848.504      0.0097480776 
    738000  -10712.353      135.50718     -10576.845      738            78950.702      0.0097849355 
    739000  -10716.035      131.25007     -10584.785      739            79053.039      0.0097716654 
    740000  -10713.411      134.90868     -10578.502      740            79155.077      0.0098002676 
    741000  -10711.332      129.33612     -10581.996      741            79258.414      0.0096770679 
    742000  -10711.658      132.58072     -10579.077      742            79361.552      0.0096957234 
    743000  -10714.423      134.30972     -10580.114      743            79465.109      0.0096565687 
    744000  -10716.451      136.87492     -10579.576      744            79568.393      0.0096819781 
    745000  -10712.699      131.93024     -10580.769      745            79672.798      0.0095781042 
    746000  -10713.96       133.99503     -10579.965      746            79780.801      0.0092589773 
    747000  -10716.23       131.99101     -10584.239      747            79886.035      0.0095027073 
[...]
    888000  -10710.736      137.41138     -10573.325      888            94568.001      0.0099975043 
    889000  -10717.28       129.6847      -10587.596      889            94668.562      0.0099441933 
    890000  -10711.368      131.17142     -10580.196      890            94770.518      0.0098081505 
    891000  -10717.418      132.6182      -10584.799      891            94873.125      0.0097459039 
    892000  -10706.78       134.51601     -10572.264      892            94975.675      0.0097513903 
    893000  -10720.024      134.5953      -10585.428      893            95076.524      0.0099157612 
    894000  -10709.884      137.51509     -10572.369      894            95176.191      0.010033472  
    895000  -10713.83       137.38798     -10576.442      895            95276.343      0.0099848022 
    896000  -10719.218      131.16271     -10588.055      896            95380.504      0.0096005394 
    897000  -10714.803      133.71861     -10581.085      897            95488.343      0.0092730591 
    898000  -10712.839      133.53868     -10579.3        898            95598.696      0.0090618532 
    899000  -10712.974      132.38109     -10580.593      899            95710.781      0.0089217497 
    900000  -10718.146      141.56654     -10576.579      900            95817.199      0.0093969335 
    901000  -10714.997      134.06989     -10580.927      901            95920.72       0.0096598701 
    902000  -10719.434      137.9221      -10581.512      902            96021.354      0.0099370106 
    903000  -10714.248      134.11626     -10580.132      903            96121.242      0.010011165  
    904000  -10713.836      131.25556     -10582.581      904            96222.399      0.0098856313 
    905000  -10713.322      134.89186     -10578.43       905            96322.657      0.0099742702 
    906000  -10720.036      133.52027     -10586.516      906            96422.898      0.0099760015 
    907000  -10713.829      135.51443     -10578.315      907            96523.501      0.0099400352 
    908000  -10712.504      131.6534      -10580.851      908            96623.478      0.010002276  
    909000  -10713.754      131.03763     -10582.716      909            96722.871      0.010061132  
    910000  -10715.068      135.16329     -10579.905      910            96821.994      0.010088453  
    911000  -10718.215      137.02631     -10581.189      911            96921.624      0.010037133  
    912000  -10711.296      140.99529     -10570.301      912            97021.161      0.010046484  
    913000  -10716.498      129.54105     -10586.957      913            97121.203      0.0099958062 
    914000  -10711.946      135.30864     -10576.638      914            97223.247      0.0097997119 
    915000  -10714.249      130.74958     -10583.499      915            97326.467      0.0096880331 
    916000  -10714.039      136.21377     -10577.825      916            97431.113      0.0095560455 
    917000  -10717.391      137.40081     -10579.99       917            97539.2        0.0092518388 
    918000  -10716.467      139.92232     -10576.544      918            97644.929      0.0094580937 
    919000  -10717.652      130.76144     -10586.89       919            97754.848      0.0090976349 
    920000  -10716.296      130.17955     -10586.116      920            97861.617      0.0093659692 
    921000  -10710.903      131.82663     -10579.076      921            97963.804      0.0097860155 
    922000  -10715.968      134.68688     -10581.281      922            98066.61       0.0097270362 
    923000  -10711.245      132.14343     -10579.102      923            98169.562      0.0097132852 
    924000  -10708.153      135.23211     -10572.921      924            98274          0.0095750962 
    925000  -10715.851      133.2491      -10582.602      925            98378.96       0.0095273981 
    926000  -10707.142      137.21203     -10569.93       926            98482.619      0.0096470345 
    927000  -10717.237      137.19738     -10580.04       927            98585.978      0.0096749996 
    928000  -10722.096      132.63311     -10589.463      928            98687.491      0.009850981  
    929000  -10714.901      133.96382     -10580.937      929            98788.23       0.0099265611 
    930000  -10720.881      137.85054     -10583.03       930            98888.566      0.0099665298 
    931000  -10718.311      131.8254      -10586.486      931            98988.891      0.0099676761 
    932000  -10713.983      127.33333     -10586.65       932            99089.917      0.0098984034 
    933000  -10710.835      142.27102     -10568.564      933            99191.72       0.009822929  
    934000  -10716.752      132.75456     -10583.997      934            99295.729      0.0096145067 
    935000  -10699.567      127.74566     -10571.822      935            99401.52       0.0094526165 
    936000  -10713.746      137.20983     -10576.536      936            99509.525      0.0092588326 
    937000  -10716.325      138.63384     -10577.691      937            99618.752      0.0091552521 
    938000  -10714.825      136.21353     -10578.611      938            99728.963      0.0090734828 
    939000  -10714.262      133.47585     -10580.786      939            99840.492      0.0089662633 
    940000  -10719.761      131.91061     -10587.85       940            99947.247      0.0093672778 
    941000  -10715.969      135.13145     -10580.837      941            100052.43      0.0095073217 
    942000  -10710.7        134.65584     -10576.044      942            100156.99      0.0095635137 
    943000  -10718.23       131.95092     -10586.279      943            100259.13      0.0097904111 
    944000  -10711.542      136.10941     -10575.433      944            100361.01      0.0098153705 
    945000  -10713.229      125.79566     -10587.434      945            100462.77      0.0098273162 
    946000  -10713.372      131.69129     -10581.681      946            100564.04      0.0098747337 
    947000  -10715.813      136.2421      -10579.571      947            100665.56      0.0098504517 
    948000  -10708.879      136.61926     -10572.259      948            100766.95      0.009863123  
    949000  -10710.207      131.89        -10578.317      949            100870.08      0.0096965506 
    950000  -10718.666      132.65182     -10586.014      950            100973.21      0.0096962385 
    951000  -10711.466      132.58131     -10578.885      951            101076.5       0.0096817538 
    952000  -10716.277      131.4323      -10584.845      952            101178.79      0.0097754337 
    953000  -10715.439      133.45537     -10581.984      953            101283.34      0.0095652159 
    954000  -10711.985      136.54907     -10575.436      954            101392.76      0.0091385858 
    955000  -10718.387      135.59972     -10582.788      955            101501.91      0.0091616834 
    956000  -10710.896      138.32438     -10572.572      956            101616.72      0.008710578  
    957000  -10717.547      132.83713     -10584.71       957            101738.1       0.0082381712 
    958000  -10710.962      137.40262     -10573.56       958            101854.37      0.0086012416 
    959000  -10712.553      131.68666     -10580.866      959            101962.3       0.0092652845 
    960000  -10718.265      135.00358     -10583.261      960            102065.53      0.0096866402 
    961000  -10714.357      135.60612     -10578.751      961            102167.63      0.009794073  
    962000  -10710.332      135.30757     -10575.025      962            102270.32      0.0097388114 
    963000  -10716.398      134.24028     -10582.158      963            102371.94      0.0098404133 
    964000  -10710.056      133.06446     -10576.991      964            102473.78      0.0098186608 
    965000  -10719.089      135.3439      -10583.745      965            102576.41      0.0097445283 
    966000  -10715.375      133.71644     -10581.658      966            102680.98      0.0095627584 
    967000  -10708.661      134.32364     -10574.337      967            102785.16      0.0095987494 
    968000  -10713.075      132.84768     -10580.228      968            102888.82      0.0096467327 
    969000  -10718.234      132.01536     -10586.218      969            102991.73      0.0097170822 
    970000  -10714.4        130.94155     -10583.459      970            103093.64      0.0098126958 
    971000  -10713.173      130.01329     -10583.16       971            103195.42      0.0098249487 
    972000  -10710.812      140.52938     -10570.283      972            103296.64      0.0098801895 
    973000  -10716.793      134.73509     -10582.058      973            103398.08      0.0098579583 
    974000  -10713.883      144.26747     -10569.615      974            103500.73      0.0097411787 
    975000  -10713.341      131.26443     -10582.077      975            103604.88      0.0096017574 
    976000  -10708.873      142.7801      -10566.093      976            103708.75      0.0096272966 
    977000  -10710.33       129.71443     -10580.615      977            103811.1       0.0097706955 
    978000  -10720.12       130.00948     -10590.11       978            103912.71      0.0098419108 
    979000  -10714.022      137.87667     -10576.145      979            104013.8       0.0098920036 
    980000  -10715.959      134.03736     -10581.922      980            104115.18      0.0098637011 
    981000  -10716.938      137.68092     -10579.257      981            104216.44      0.0098754381 
    982000  -10713.023      134.191       -10578.832      982            104318.38      0.0098096925 
    983000  -10716.491      133.06425     -10583.427      983            104420.38      0.0098041837 
    984000  -10715.673      134.77269     -10580.9        984            104521.99      0.0098411041 
    985000  -10718.346      139.42909     -10578.916      985            104624.63      0.0097434172 
    986000  -10722.573      135.85475     -10586.718      986            104727.95      0.0096785799 
    987000  -10713.982      128.88381     -10585.099      987            104832.91      0.0095268426 
    988000  -10711.613      134.42092     -10577.192      988            104937.54      0.0095574701 
    989000  -10716.854      127.99346     -10588.86       989            105040.02      0.0097578111 
    990000  -10719.93       129.37293     -10590.557      990            105141.64      0.0098413457 
    991000  -10711.004      133.61026     -10577.394      991            105242.1       0.0099535519 
    992000  -10718.374      128.36567     -10590.008      992            105342.34      0.0099759834 
    993000  -10714.128      135.52086     -10578.607      993            105442.17      0.010017321  
    994000  -10712.604      129.90765     -10582.696      994            105541.75      0.010042558  
    995000  -10709.57       132.06142     -10577.508      995            105642.47      0.0099282731 
    996000  -10713.549      136.44117     -10577.107      996            105742.86      0.0099608421 
    997000  -10714.484      129.4556      -10585.028      997            105842.84      0.010002668  
    998000  -10710.9        138.71827     -10572.182      998            105942.8       0.010003266  
    999000  -10715.841      133.84601     -10581.995      999            106044.01      0.0098806078 
   1000000  -10713.006      130.95137     -10582.054      1000           106143.83      0.010018093  
Loop time of 106144 on 16 procs for 1000000 steps with 1152 atoms

Performance: 0.814 ns/day, 29.484 hours/ns, 9.421 timesteps/s, 10.853 katom-step/s
99.5% CPU use with 16 MPI tasks x 1 OpenMP threads

MPI task timing breakdown:
Section |  min time  |  avg time  |  max time  |%varavg| %total
---------------------------------------------------------------
Pair    | 25950      | 29902      | 31853      |1090.8 | 28.17
Neigh   | 286.38     | 332.93     | 368.15     | 121.7 |  0.31
Comm    | 2108.2     | 3881.4     | 8071.2     |3031.9 |  3.66
Output  | 494.6      | 494.61     | 494.71     |   0.1 |  0.47
Modify  | 71178      | 71525      | 71844      |  83.4 | 67.39
Other   |            | 7.551      |            |       |  0.01

Nlocal:             72 ave          74 max          70 min
Histogram: 1 0 2 0 0 10 0 2 0 1
Nghost:        834.188 ave         844 max         821 min
Histogram: 4 0 0 2 0 0 4 1 1 4
Neighs:              0 ave           0 max           0 min
Histogram: 16 0 0 0 0 0 0 0 0 0
FullNghs:      5218.75 ave        5400 max        5024 min
Histogram: 1 3 0 3 1 1 1 3 0 3

Total # of neighbors = 83500
Ave neighs/atom = 72.482639
Neighbor list builds = 2000000
Dangerous builds = 0

unfix temp

min_style cg
fix 0 all box/relax aniso 0 vmax 0.001
minimize 0 0 100000 100000
Per MPI rank memory allocation (min/avg/max) = 5.533 | 5.539 | 5.543 Mbytes
   Step         PotEng         KinEng         TotEng          Time           CPU           T/CPU     
   1000000  -10713.006      130.95137     -10582.054      1000           0              0            
   1001000  -10852.574      130.95137     -10721.622      1001           45.515833      0.021970376  
   1002000  -10858.48       130.95137     -10727.529      1002           104.81531      0.016863556  
   1003000  -10858.489      130.95137     -10727.538      1003           168.48366      0.01570639   
   1004000  -10858.49       130.95137     -10727.539      1004           232.40394      0.015644486  
   1005000  -10858.49       130.95137     -10727.539      1005           296.29769      0.015650985  
   1006000  -10858.49       130.95137     -10727.539      1006           360.2863       0.015627779  
   1007000  -10858.49       130.95137     -10727.539      1007           424.09693      0.015671371  
   1008000  -10858.49       130.95137     -10727.539      1008           487.96988      0.015656081  
   1009000  -10858.49       130.95137     -10727.539      1009           551.74791      0.015679379  
   1010000  -10858.49       130.95137     -10727.539      1010           615.95023      0.01557576   
   1011000  -10858.49       130.95137     -10727.539      1011           680.08285      0.015592689  
   1012000  -10858.49       130.95137     -10727.539      1012           744.19057      0.015598745  
   1013000  -10858.49       130.95137     -10727.539      1013           808.27148      0.015605272  
   1014000  -10858.49       130.95137     -10727.539      1014           872.04346      0.015680868  
   1015000  -10858.49       130.95137     -10727.539      1015           936.07175      0.015618098  
   1016000  -10858.49       130.95137     -10727.539      1016           999.94907      0.015655008  
   1017000  -10858.49       130.95137     -10727.539      1017           1063.2911      0.015787307  
   1018000  -10858.49       130.95137     -10727.539      1018           1126.7958      0.015746856  
   1019000  -10858.49       130.95137     -10727.539      1019           1190.5218      0.01569218   
   1020000  -10858.49       130.95137     -10727.539      1020           1254.3525      0.01566646   
   1021000  -10858.49       130.95137     -10727.539      1021           1318.4738      0.015595427  
   1022000  -10858.49       130.95137     -10727.539      1022           1382.6066      0.015592646  
   1023000  -10858.49       130.95137     -10727.539      1023           1446.6898      0.015604722  
   1024000  -10858.49       130.95137     -10727.539      1024           1510.7402      0.015612708  
   1025000  -10858.49       130.95137     -10727.539      1025           1574.9548      0.015572774  
   1026000  -10858.49       130.95137     -10727.539      1026           1639.0376      0.015604806  
   1027000  -10858.49       130.95137     -10727.539      1027           1703.1301      0.015602468  
   1028000  -10858.49       130.95137     -10727.539      1028           1767.2478      0.01559632   
   1029000  -10858.49       130.95137     -10727.539      1029           1831.3293      0.015605121  
   1030000  -10858.49       130.95137     -10727.539      1030           1895.3627      0.015616849  
   1031000  -10858.49       130.95137     -10727.539      1031           1959.3487      0.015628418  
   1032000  -10858.49       130.95137     -10727.539      1032           2023.2778      0.015642319  
   1033000  -10858.49       130.95137     -10727.539      1033           2087.4744      0.015577151  
   1034000  -10858.49       130.95137     -10727.539      1034           2151.5297      0.015611523  
   1035000  -10858.49       130.95137     -10727.539      1035           2215.544       0.015621502  
   1036000  -10858.49       130.95137     -10727.539      1036           2279.5284      0.015628815  
   1037000  -10858.49       130.95137     -10727.539      1037           2343.7384      0.015573899  
   1038000  -10858.49       130.95137     -10727.539      1038           2407.6807      0.015639092  
   1039000  -10858.49       130.95137     -10727.539      1039           2471.6259      0.015638398  
   1040000  -10858.49       130.95137     -10727.539      1040           2535.787       0.015585761  
   1041000  -10858.49       130.95137     -10727.539      1041           2599.7906      0.015624122  
   1042000  -10858.49       130.95137     -10727.539      1042           2663.7483      0.015635331  
   1043000  -10858.49       130.95137     -10727.539      1043           2727.4673      0.015693919  
   1044000  -10858.49       130.95137     -10727.539      1044           2791.2417      0.015680252  
   1045000  -10858.49       130.95137     -10727.539      1045           2854.6991      0.015758624  
   1046000  -10858.49       130.95137     -10727.539      1046           2918.3341      0.015714617  
   1047000  -10858.49       130.95137     -10727.539      1047           2981.1926      0.015908745  
   1048000  -10858.49       130.95137     -10727.539      1048           3040.8331      0.016767114  
   1049000  -10858.49       130.95137     -10727.539      1049           3100.2154      0.016840059  
   1050000  -10858.49       130.95137     -10727.539      1050           3159.8568      0.016766877  
   1050371  -10858.49       130.95137     -10727.539      1050.371       3181.9986      0.016755593  
Loop time of 3182 on 16 procs for 50371 steps with 1152 atoms

99.6% CPU use with 16 MPI tasks x 1 OpenMP threads

Minimization stats:
  Stopping criterion = max force evaluations
  Energy initial, next-to-last, final = 
     -10713.0055426244  -10858.4901812913  -10858.4901812913
  Force two-norm initial, final = 224.4474 1.129909e-11
  Force max component initial, final = 135.28686 8.1790672e-12
  Final line search alpha, max atom move = 1 8.1790672e-12
  Iterations, force evaluations = 50371 100001

MPI task timing breakdown:
Section |  min time  |  avg time  |  max time  |%varavg| %total
---------------------------------------------------------------
Pair    | 1574.3     | 2562.8     | 3128.7     | 977.1 | 80.54
Neigh   | 0.00046656 | 0.00060155 | 0.00066712 |   0.0 |  0.00
Comm    | 5.7711     | 511.05     | 1440       |2155.4 | 16.06
Output  | 0.0058137  | 0.006298   | 0.012043   |   1.9 |  0.00
Modify  | 0          | 0          | 0          |   0.0 |  0.00
Other   |            | 108.2      |            |       |  3.40

Nlocal:             72 ave          73 max          71 min
Histogram: 1 0 0 0 0 14 0 0 0 1
Nghost:        846.312 ave         850 max         838 min
Histogram: 2 0 0 0 0 1 4 1 4 4
Neighs:              0 ave           0 max           0 min
Histogram: 16 0 0 0 0 0 0 0 0 0
FullNghs:      5393.12 ave        5668 max        5093 min
Histogram: 1 1 3 1 0 4 2 2 1 1

Total # of neighbors = 86290
Ave neighs/atom = 74.904514
Neighbor list builds = 2
Dangerous builds = 0

write_data data.CSRO
System init for write_data ...

print "all done"
all done
Total wall time: 30:22:05
