LAMMPS data file via write_data, version 22 Dec 2022, timestep = 5050187

1152 atoms
5 atom types

0.007935908554354392 14.870215799315043 xlo xhi
-0.01153321831546962 15.79219616455256 ylo yhi
0.0973671297649953 68.62187201886506 zlo zhi

Masses

1 180.948
2 92.9064
3 50.9415
4 95.94
5 183.84

Atoms # atomic

132 3 0.2262156639030762 0.8627276016913633 2.5246884005084995 -25 -9 1
133 3 0.24341910789165266 3.52545091708349 2.5420667709825784 -25 -9 1
57 3 1.4535847088010176 2.682936042432196 0.47676161641724035 -25 -9 1
113 3 2.6938104096098865 1.716400533575569 2.485711717427531 -25 -9 1
120 3 5.222194998036614 2.5914927950686626 2.459520565468729 -25 -9 1
38 3 3.951852001797018 0.8270829575602642 0.4486532404147016 -25 -9 1
17 3 6.370374967208815 1.7541172372472968 0.487988520459862 -25 -9 1
39 3 3.95840021476402 3.5564841022196445 0.41475753759333056 -25 -9 1
98 3 7.688510922288366 3.4926644214752667 2.5202992704368707 -25 -9 1
97 3 7.6661376312708 0.8204177013815059 2.5435725187768923 -25 -9 1
21 3 8.873151929443837 2.664699640947791 0.5347386390493832 -25 -9 1
80 3 10.15649676266057 1.7274874871032373 2.5608484286836113 -25 -9 1
1 3 13.87891183890528 1.7700171217998428 0.4837685953113095 -25 -9 1
87 3 12.635954030917617 2.6362960343175206 2.5544268993829373 -25 -9 1
4 3 11.426908083525495 0.8159616236214996 0.5477567597146563 -25 -9 1
5 3 11.419856430388386 3.568521972659947 0.505532954939927 -25 -9 1
146 3 0.2430590183782034 6.169203772413945 2.5496321193222626 -25 -9 1
58 3 1.4939498253785035 5.319642021496921 0.4500625430499018 -25 -9 1
139 3 2.700091955597786 4.422613012154862 2.475888436397958 -25 -9 1
140 3 2.7176980385518297 7.037855427607429 2.5311452919218653 -25 -9 1
90 3 13.85454693974048 7.020323941420079 4.6276699902927145 -25 -9 1
143 3 5.188752036305946 7.8888649445858645 2.517643929953551 -25 -9 1
121 3 5.219068989225395 5.2846062879309335 2.4765100834513447 -25 -9 1
65 3 3.9622974154747355 6.173735900908624 0.4128385463449929 -25 -9 1
46 3 6.421393769064409 7.017801224948681 0.40049765737839294 -25 -9 1
45 3 6.415368456988607 4.414189667578269 0.4035512940245406 -25 -9 1
22 3 8.907330888397865 5.290307406592469 0.4306018983208489 -25 -9 1
126 3 7.67972831989447 6.136714079917465 2.5047768664069356 -25 -9 1
105 3 10.143697358041694 7.0105264819260364 2.531775007459223 -25 -9 1
104 3 10.164413077414283 4.383389164166471 2.538783903225414 -25 -9 1
52 3 8.894234861725211 7.873916100774939 0.4206013845474256 -25 -9 1
12 3 13.877044452201662 7.06010872929837 0.4601514450134948 -25 -9 1
11 3 13.886197796747787 4.454946705614431 0.4832509642922864 -25 -9 1
29 3 11.40198173725565 6.176406884343234 0.45213517372539264 -25 -9 1
88 3 12.631726179260149 5.280640700812508 2.552637424986878 -25 -9 1
106 3 11.377998967398819 6.129987772984605 4.623579456738556 -25 -9 1
134 3 1.4279425992249957 2.5980768079692913 4.606706379020136 -25 -9 1
128 3 0.22147338070950898 0.8509204929787656 6.690136250565015 -25 -9 1
129 3 0.22869065570832106 3.494602795404798 6.697007385987122 -25 -9 1
110 3 2.6910250239468025 1.7075922443800449 6.705083902885568 -25 -9 1
92 3 6.460586764986853 1.697039816455893 4.600198734516283 -25 -9 1
114 3 3.939432110567068 0.7904908104447187 4.592642810174921 -25 -9 1
115 2 3.963425911782541 3.4902060657480583 4.593400144373985 -25 -9 1
116 3 5.2211519581305925 2.583204758543229 6.725884473847908 -25 -9 1
99 3 8.92223984327264 2.5984792611223844 4.615796393635273 -25 -9 1
94 3 7.677039936685962 3.4837815929614857 6.689588134217315 -25 -9 1
93 3 7.666215464256174 0.8418773313079019 6.689269268574647 -25 -9 1
77 3 10.144396118029883 1.7296964461428075 6.6961076274332605 -25 -9 1
76 3 13.857981368690055 1.7412436601349015 4.615760582536818 -25 -9 1
81 3 11.3790400821138 0.8557703978795739 4.622867047030924 -25 -9 1
82 3 11.391031190010025 3.4948903390082067 4.624942113432853 -25 -9 1
83 3 12.61936817662067 2.6155074173253845 6.698514206256532 -25 -9 1
135 3 1.4568279662786863 5.283726303266337 4.61993352666667 -25 -9 1
144 3 0.22648123717689642 6.13898181342032 6.701369237575646 -25 -9 1
136 3 2.6853861863517623 4.3928498942402525 6.733809823554106 -25 -9 1
137 3 2.7069604058573837 7.017862760566228 6.703764411852034 -25 -9 1
89 3 13.862299962977655 4.386321937554965 4.624802355112055 -25 -9 1
142 3 5.185694907803409 7.887391131698524 6.704903508410418 -25 -9 1
122 3 6.497899534419629 4.382060506266966 4.592895180786444 -25 -9 1
123 3 6.4328971353537705 7.0052160715565455 4.6077247561063945 -25 -9 1
117 3 5.209015081792397 5.268810956512041 6.712077023001536 -25 -9 1
141 3 3.9582611687183316 6.189734752603899 4.60946226723492 -25 -9 1
127 3 8.894204598658414 7.875639792582627 4.617258641968733 -25 -9 1
124 3 7.668722724168843 6.125445929446904 6.696867675488112 -25 -9 1
102 3 10.135614719895925 7.00116444112484 6.699403717874313 -25 -9 1
100 3 8.914341326972693 5.2446966397325925 4.608813268517985 -25 -9 1
101 3 10.143678374845583 4.365445476625396 6.698373278959016 -25 -9 1
108 3 12.609569007948148 7.886055001287176 6.701039420940162 -25 -9 1
84 3 12.61511942946494 5.2515515286714445 6.701258603064031 -25 -9 1
207 3 0.22699555440174762 3.488211053196525 10.843766755075839 -25 -9 1
206 3 0.2245861516058503 0.854306995278086 10.84223623339761 -25 -9 1
186 3 2.701928979646033 1.7305583904910196 10.844188141237765 -25 -9 1
130 3 1.4636772870974828 2.606774476963619 8.770635674086797 -25 -9 1
188 3 3.9415125673676004 3.48789637160591 12.919046763228486 -25 -9 1
193 3 5.17780971122432 2.6119615945193715 10.843290239677062 -25 -9 1
165 3 6.418097253281147 1.7347926395689428 12.917392019644902 -25 -9 1
111 3 3.937588864356654 0.8467838511336196 8.767282191875108 -25 -9 1
112 3 3.9460103042101653 3.488436108287262 8.773411349012381 -25 -9 1
91 3 6.421545554754712 1.7290405075500639 8.765181057137408 -25 -9 1
171 3 7.658191358228897 3.4910293064976776 10.844730432023526 -25 -9 1
170 3 7.65451274125836 0.8574554122943049 10.839031464172155 -25 -9 1
153 3 10.133601177940433 1.7354180232048613 10.84351684373073 -25 -9 1
95 3 8.90136634632878 2.6116380794821272 8.76747906274884 -25 -9 1
172 3 8.896266212051682 2.6133561612583347 12.920256743643854 -25 -9 1
79 3 11.3767389298769 3.490572460308299 8.773382395391662 -25 -9 1
160 3 12.611637936329641 2.6123842352689213 10.845361254323896 -25 -9 1
155 3 11.373558684566156 3.490970650056343 12.923053257019692 -25 -9 1
149 3 13.849691623074847 1.7334595454170252 12.917416685548764 -25 -9 1
154 3 11.372971473886546 0.8575315355113219 12.917682642305229 -25 -9 1
78 3 11.37335457990796 0.8553614802252556 8.768743619483574 -25 -9 1
75 3 13.848796486249428 1.732985760410619 8.769275819736103 -25 -9 1
221 3 0.22908029253014375 6.124124886939526 10.845319193193587 -25 -9 1
214 3 2.706595978955414 4.365615165581971 10.845715651472934 -25 -9 1
215 3 2.705421869775746 7.004403975636851 10.849995451854724 -25 -9 1
131 3 1.4676619698779871 5.250360516286428 8.7737632909993 -25 -9 1
145 3 1.4658131018880476 7.889278677979184 8.776579043730067 -25 -9 1
194 3 5.182363178328524 5.246324565413232 10.849433163391925 -25 -9 1
218 3 5.181494076107014 7.881814914225844 10.852689877315333 -25 -9 1
138 3 3.948687404364387 6.131334422501423 8.778814935040156 -25 -9 1
195 3 6.419860513630476 4.36670083209182 12.921205114236448 -25 -9 1
196 3 6.421056162983639 7.001165309302422 12.923463912540457 -25 -9 1
118 3 6.427068071002543 4.370400469176706 8.772216906952696 -25 -9 1
119 3 6.422734760712108 7.00370912672544 8.776997074638603 -25 -9 1
96 3 8.90202861490362 5.245571906296811 8.774589443439664 -25 -9 1
200 3 7.659944121112628 6.12362955142871 10.850759186311622 -25 -9 1
178 3 10.136354999432262 7.001880412614767 10.852247175039308 -25 -9 1
177 3 10.136188853969061 4.368686511831698 10.849395384195331 -25 -9 1
201 3 8.897828438513534 7.880148326299587 12.926911873018948 -25 -9 1
125 3 8.897384127127802 7.879140820728509 8.776609902559873 -25 -9 1
103 3 11.375270432667778 6.125061180190974 8.776040225507607 -25 -9 1
182 3 12.612619762917895 7.880733092487374 10.850707858799513 -25 -9 1
163 3 13.85071349645832 7.001325093027371 12.923443127328214 -25 -9 1
179 3 11.37385086822749 6.124269603146894 12.927836226565375 -25 -9 1
161 3 12.613522323989171 5.246466256737738 10.848629030387029 -25 -9 1
162 3 13.850340175827471 4.367543560721292 12.920142891266519 -25 -9 1
85 3 13.851619003697953 4.369078248192234 8.771528756727884 -25 -9 1
86 3 13.850550976281374 7.00717814419369 8.775174498934605 -25 -9 1
208 3 1.4641974889150113 2.609919488707126 12.917201574079147 -25 -9 1
202 3 0.2268980889435921 0.8541550622302215 14.99151966681055 -25 -9 1
203 3 0.2262993542137125 3.4885450734960983 14.991409489396709 -25 -9 1
183 3 2.7030675477777217 1.732538107198299 14.993612256496377 -25 -9 1
204 3 1.4658117841767622 2.6102482822524258 17.064319692597056 -25 -9 1
187 3 3.9410333786184615 0.8548251126936414 12.919868157738707 -25 -9 1
185 3 3.9428042737622984 3.486277269667484 17.068938304159726 -25 -9 1
189 3 5.181021504896038 2.6105481459759603 14.99460764064194 -25 -9 1
184 3 3.9429631766659274 0.8588996440016625 17.074215278129678 -25 -9 1
164 3 6.4215400674464265 1.7359253884456523 17.07339481188005 -25 -9 1
166 3 7.659413430534886 0.8593280553413946 14.993980814995469 -25 -9 1
167 3 7.6599959885492845 3.48859744530645 14.99727710870264 -25 -9 1
168 3 8.900767963206976 2.6113743836509338 17.07521886619121 -25 -9 1
150 3 10.137271274923915 1.7353422227013922 14.995622733454443 -25 -9 1
152 3 11.378843155390449 3.487782795235517 17.07847566088553 -25 -9 1
156 3 12.613373328412612 2.611429411143683 14.995765498049709 -25 -9 1
797 3 11.376871903479914 0.8553957430457719 17.069395671157768 -25 -9 1
148 3 13.85407389684731 1.730310558024884 17.06657331742915 -25 -9 1
151 3 1.465714652369934 7.8798549464174545 12.922753427592685 -25 -9 1
209 3 1.4652584273649802 5.244373110463567 12.91794395311018 -25 -9 1
220 3 1.4655368649345435 7.877773001159803 17.066981282373984 -25 -9 1
219 3 0.22615106666611284 6.122632299648516 14.994110306148771 -25 -9 1
205 3 1.4653868614196883 5.243614993755828 17.064612809960263 -25 -9 1
211 3 2.7039375513128334 6.9998741880804385 14.992054382153535 -25 -9 1
210 3 2.70321697415113 4.365348835225284 14.991259098916421 -25 -9 1
217 3 5.183137851145579 7.877894993660225 14.991758202753186 -25 -9 1
212 3 3.9429116751617794 6.117873328483646 17.06410042016169 -25 -9 1
216 3 3.9426765545290534 6.122702377334552 12.920915012826718 -25 -9 1
191 3 6.422106566611404 4.3612277544898035 17.070821025070654 -25 -9 1
190 3 5.1820091150644965 5.241947096861666 14.993391244933902 -25 -9 1
192 3 6.421161345026545 6.993087507412419 17.064570266466987 -25 -9 1
199 3 8.904554949906235 7.876863584815653 17.075224269988503 -25 -9 1
173 3 8.897568520801958 5.245961457812814 12.926246189267077 -25 -9 1
174 3 10.13734409744227 4.367583542730235 15.003217099259018 -25 -9 1
169 3 8.90101588565961 5.239917487017847 17.08044134516379 -25 -9 1
175 3 10.136210565411798 7.002096947881761 15.006889560423 -25 -9 1
197 3 7.6597633490643675 6.121138297656332 14.999364943111686 -25 -9 1
176 3 11.379588742105181 6.121459144226309 17.08376127595025 -25 -9 1
157 3 12.612765507604784 5.245450916781878 15.000893409896108 -25 -9 1
181 3 12.612869760847845 7.879079043131348 15.002791189939067 -25 -9 1
159 3 13.854200247959565 7.000373017671417 17.075630099004893 -25 -9 1
158 3 13.85373805295404 4.367073653953009 17.07103564955181 -25 -9 1
279 3 0.22737528615798924 0.8514360921811707 19.13850044118979 -25 -9 1
280 3 0.23204442402822273 3.4911746752525135 19.138368880680225 -25 -9 1
281 3 1.4821253724689707 2.6240077023418586 21.202848361689654 -25 -9 1
260 3 2.708284432831601 1.735238195831676 19.145301149203583 -25 -9 1
262 3 3.951951561062107 3.485508548688612 21.22940194274457 -25 -9 1
261 3 3.957473151840386 0.8515922849475479 21.236802827416174 -25 -9 1
267 3 5.184820666694883 2.6106546554582675 19.152924291950832 -25 -9 1
239 3 6.4303782762400665 1.7305582573640006 21.238598383814026 -25 -9 1
244 3 7.664580782280215 0.8611361561266252 19.151914032043948 -25 -9 1
245 3 7.663141719787506 3.486235165540268 19.153357910743022 -25 -9 1
246 3 8.901305854887829 2.609085503812919 21.238404779757424 -25 -9 1
227 3 10.13729255099509 1.7331603558987294 19.153079360448807 -25 -9 1
223 3 13.82090371334676 1.7497775780982563 21.184447806816618 -25 -9 1
234 3 12.613306629874161 2.611019875512467 19.147652928245147 -25 -9 1
229 3 11.37107713976848 3.4901523920671433 21.235849510383403 -25 -9 1
228 3 11.37000651013355 0.8553832998833271 21.23076751067574 -25 -9 1
293 3 0.23513010998180672 6.123498805529697 19.14485507155145 -25 -9 1
282 3 1.4764642087675908 5.24558769803351 21.218022754858353 -25 -9 1
286 3 2.704566984175345 4.365034157459173 19.14223027124603 -25 -9 1
287 3 2.704441852820158 6.9962940518741075 19.136288781634637 -25 -9 1
225 3 1.4719779443214829 7.884624767038378 21.226044115089305 -25 -9 1
288 3 3.949109713746884 6.116503269667548 21.224608813868254 -25 -9 1
268 3 5.1826499381463496 5.235106627562688 19.142433879039928 -25 -9 1
269 3 6.428109756901604 4.356214669919012 21.23705793167618 -25 -9 1
270 3 6.428089668825469 6.934566648141104 21.2292844496239 -25 -9 1
290 3 5.171084969130568 7.853211027798996 19.11800425101526 -25 -9 1
273 3 7.666521710508942 6.109861262513149 19.150070634730355 -25 -9 1
247 3 8.908961592829206 5.230513645408931 21.241714910507902 -25 -9 1
252 3 10.141131269920347 4.362915961066352 19.158636012117984 -25 -9 1
253 3 10.149712892492875 6.993985950324649 19.163113272589484 -25 -9 1
274 3 8.93782725581903 7.852398309531569 21.239699665175984 -25 -9 1
256 3 12.6250567766047 7.876567478106102 19.160716399143467 -25 -9 1
236 3 13.851684214306744 4.369127887632769 21.224248577920307 -25 -9 1
237 3 13.86241861984604 7.003705687593322 21.2346141284855 -25 -9 1
235 3 12.62009664283129 5.245727432781478 19.156977106630336 -25 -9 1
254 3 11.384327288762567 6.119096076071658 21.243449438090202 -25 -9 1
276 3 0.21557927818707914 3.5212280244260916 23.2957197282428 -25 -9 1
275 2 0.22751324004657586 0.8430002406554906 23.323511433156682 -25 -9 1
277 3 1.4973488952075475 2.564184157699885 25.456105965273952 -25 -9 1
257 3 2.769963099544481 1.7366707926007714 23.32735983744905 -25 -9 1
255 3 12.623857997794405 7.882436172355555 23.329617961089646 -25 -9 1
259 3 3.9892239344532525 3.460945876404995 25.432908567663603 -25 -9 1
258 3 3.97279716734363 0.8446881113242727 25.428478995490885 -25 -9 1
263 3 5.201490521884912 2.59686110433897 23.331324520411602 -25 -9 1
238 3 6.44361596209096 1.724893133168112 25.426146757376532 -25 -9 1
241 3 7.672350614374012 3.4788610982467367 23.32977170820465 -25 -9 1
240 3 7.677748713088256 0.8582155300820782 23.330102390808676 -25 -9 1
242 3 8.915312945162997 2.606568883384332 25.42177788577631 -25 -9 1
224 3 10.140631219342579 1.73610932588395 23.32751782407459 -25 -9 1
222 3 13.82631175560202 1.7411450516076095 25.47014957771321 -25 -9 1
230 3 12.587265708195424 2.6236289280721556 23.320546221778798 -25 -9 1
226 3 11.380120029354453 3.4878698270340838 25.418677097895696 -25 -9 1
869 3 11.380118674110022 0.8505888081173474 25.42608659432795 -25 -9 1
291 3 0.20929038278640566 6.144069774535685 23.279561785894952 -25 -9 1
278 2 1.481812536134205 5.243176306984214 25.429293049436424 -25 -9 1
283 3 2.74454106342205 4.338432239795146 23.280663070613866 -25 -9 1
284 3 2.7229604406794192 7.011086150366439 23.300099584318765 -25 -9 1
289 3 5.161500341458287 7.831949703918021 23.322070476358146 -25 -9 1
285 3 4.007687913184303 6.1280712402581194 25.428294793139223 -25 -9 1
264 3 5.191209827121411 5.223821630134866 23.325187889170554 -25 -9 1
265 3 6.441815942312627 4.346741548912019 25.426922258174834 -25 -9 1
266 3 6.431875578812643 6.931952072913066 25.428002228116064 -25 -9 1
272 3 8.934947628109843 7.848879056623248 25.420807865156636 -25 -9 1
249 3 10.158515841319966 6.984903545143092 23.329217804625102 -25 -9 1
271 3 7.673376891659225 6.095719008072758 23.327144933460417 -25 -9 1
243 3 8.914556606939787 5.2273832983331685 25.418731613064626 -25 -9 1
248 3 10.14646760585418 4.358630056788598 23.32658120021243 -25 -9 1
232 3 13.807401603004099 4.3521537674722275 25.423149283358484 -25 -9 1
231 3 12.612635673768036 5.247912058873466 23.323395114034152 -25 -9 1
233 3 13.836752089298363 7.0230086315602165 25.42171872643468 -25 -9 1
250 3 11.381748332374 6.12291815177787 25.41765887360387 -25 -9 1
351 3 0.23622150022215302 0.8393763366974668 27.52921431667839 -25 -9 1
352 3 0.22873803661057968 3.462803686460159 27.546123222044205 -25 -9 1
353 3 1.4800073941686909 2.598135216629049 29.610696084583832 -25 -9 1
331 3 2.7278845778109404 1.7208770024729512 27.527628794248155 -25 -9 1
941 3 3.9608476921592892 0.847987894047567 29.59653906043107 -25 -9 1
333 3 3.96399918194639 3.478839191076618 29.60604102996924 -25 -9 1
338 3 5.2112341836885285 2.5969050182491316 27.51896356747549 -25 -9 1
311 3 6.441588703569268 1.7268674566733897 29.59612486383093 -25 -9 1
940 3 7.682325366317589 0.853298120150963 27.512980861392563 -25 -9 1
317 3 7.683428115627788 3.4785566115933393 27.51409840355676 -25 -9 1
318 3 8.917940916971991 2.602762409298154 29.591911767357917 -25 -9 1
299 3 10.152404376001648 1.7260161408345263 27.50915663807451 -25 -9 1
305 3 13.877215498498119 6.995191797655347 33.73298950913528 -25 -9 1
295 3 13.86786657332159 1.7197879276331058 29.6005921870717 -25 -9 1
306 3 12.621833943429195 2.5995981246858877 27.51641219705137 -25 -9 1
301 3 11.390922430211226 3.4781752283057146 29.587724791852356 -25 -9 1
300 3 11.390847371460586 0.8457383337073416 29.59468377890257 -25 -9 1
304 3 13.875084086451844 4.360129706918851 33.73992587911785 -25 -9 1
332 3 0.2104632496552301 6.14551342266907 27.562675868131606 -25 -9 1
354 3 1.4823233261738342 5.2401624211458095 29.61044114150437 -25 -9 1
358 3 2.7518773338727165 4.335910692858509 27.569225192322723 -25 -9 1
359 3 2.7313097454468904 7.018435371619813 27.548703958641582 -25 -9 1
360 3 3.9643777430472293 6.119935113665406 29.609941347686213 -25 -9 1
339 3 5.204883301699284 5.2284951534205675 27.528176048466417 -25 -9 1
340 3 6.44286680060142 4.3561480687179035 29.599885346601134 -25 -9 1
341 3 6.438422830715763 6.989099577723322 29.606442572719196 -25 -9 1
363 3 5.184778947249895 7.856388976497916 27.549045133698343 -25 -9 1
344 3 7.6758402525086264 6.103544950163213 27.517117448866284 -25 -9 1
319 3 8.914977541250364 5.232191082404181 29.588953101150963 -25 -9 1
323 3 10.152291860206853 4.358665107462955 27.506528667518197 -25 -9 1
324 3 10.149664905211731 6.990841813984229 27.502817074173944 -25 -9 1
346 3 8.91476272361432 7.86947976804967 29.592083345085054 -25 -9 1
309 3 13.864845625279594 6.998865387347548 29.591478310728103 -25 -9 1
308 3 13.864591001037379 4.355966177745808 29.59810971731624 -25 -9 1
307 3 12.619606963788012 5.243282597358543 27.508550586308452 -25 -9 1
325 3 11.388077178618635 6.112959909537894 29.581250266699385 -25 -9 1
942 3 0.24622077613887633 0.8466195144904303 31.67973356660751 -25 -9 1
348 3 0.2461360074312993 3.4810024587131325 31.678207095896138 -25 -9 1
349 3 1.4894326237061706 2.606709158076594 33.75392483110703 -25 -9 1
328 3 2.7222861873708775 1.7263947596563518 31.680287007576982 -25 -9 1
303 3 12.631247531124005 5.234774843960452 31.66242142733056 -25 -9 1
330 3 3.9682742437714187 3.4850225221173026 33.75526070609573 -25 -9 1
329 3 3.96304835302934 0.8514247655540377 33.755745450299436 -25 -9 1
334 3 5.199726288127205 2.605887496499641 31.676511231877473 -25 -9 1
310 3 6.43940643632269 1.7259755451420846 33.75321688712431 -25 -9 1
322 3 11.39672951549169 6.11061714177574 33.73573889088772 -25 -9 1
313 3 7.67848821862992 3.4805336124014885 31.673970537562745 -25 -9 1
312 3 7.676332238162897 0.8498198836721298 31.67295864922443 -25 -9 1
314 3 8.91707824483933 2.59960710064733 33.74797674654192 -25 -9 1
296 3 10.153927265677739 1.7244061776062876 31.669358865676067 -25 -9 1
294 3 13.87137836511938 1.7254756158269122 33.74903652727542 -25 -9 1
302 3 12.630826194686719 2.601300541390003 31.66958674699503 -25 -9 1
298 3 11.394997473523913 3.4776389221634427 33.74023358140813 -25 -9 1
297 3 11.39212204238431 0.8434633965320597 33.74384887137664 -25 -9 1
347 3 1.4958313634799831 7.880671302175502 33.7406120562813 -25 -9 1
364 3 0.25036318971747235 6.117379828865945 31.67071548947372 -25 -9 1
350 3 1.4943768110564783 5.243119194140677 33.7460129826836 -25 -9 1
356 3 2.7282491195414353 7.000626821487143 31.678597744504945 -25 -9 1
355 3 2.7236203587495686 4.363695285061221 31.681297488259887 -25 -9 1
357 3 3.973652166320884 6.120671153079993 33.75249416014057 -25 -9 1
335 3 5.204367767971153 5.23906893643962 31.680929786459416 -25 -9 1
336 3 6.445971301211723 4.358070923525999 33.75661163447396 -25 -9 1
337 3 6.448465612580216 6.991143655806105 33.75503288469793 -25 -9 1
321 3 10.153738188419037 6.989721806653152 31.660517958299167 -25 -9 1
320 3 10.154545423086377 4.356476473839309 31.66501369471624 -25 -9 1
315 3 8.921412862052154 5.2311223780000375 33.74958277724339 -25 -9 1
342 3 7.679315630842611 6.11200631373474 31.67467303069118 -25 -9 1
316 3 1.4841633317720047 7.883595142953077 29.60304235490781 -25 -9 1
327 3 12.620192769210107 7.88157484033169 27.506067859574618 -25 -9 1
362 3 5.205418051482358 7.874178395873897 31.6802199678916 -25 -9 1
343 3 8.920010726628949 7.863649594367121 33.745394528916194 -25 -9 1
326 3 12.632994717059061 7.869975338555918 31.657491841763647 -25 -9 1
424 3 0.2597931313983243 3.488315864722371 35.81546856266573 -25 -9 1
423 3 0.2500553449581067 0.8521049811849853 35.82892829942634 -25 -9 1
425 3 1.5097232074151241 2.61972751330784 37.89692067610408 -25 -9 1
403 3 2.731726704050327 1.732764245336877 35.8336022811403 -25 -9 1
393 3 11.407668608650471 6.2036566406093785 42.05426733208558 -25 -9 1
405 3 3.9868397799125 3.490659811283386 37.90749753158841 -25 -9 1
404 3 3.972509362568879 0.8574650198548619 37.91852328785402 -25 -9 1
410 3 5.2100471243695585 2.604197656574756 35.834599913764265 -25 -9 1
382 3 6.4452293013074025 1.7170274839094457 37.913113524769685 -25 -9 1
375 3 13.97983865925917 4.447170741218144 41.996915964636855 -25 -9 1
387 3 7.676487522853558 0.8398510965136673 35.826709273685914 -25 -9 1
388 3 7.686761155468897 3.4720310614299636 35.83375986457884 -25 -9 1
389 3 8.920873599620835 2.5781522193414674 37.90154203960935 -25 -9 1
370 3 10.155829855605894 1.712926452655952 35.81655348469485 -25 -9 1
372 3 11.410094999025032 3.4676144883310513 37.87705313554987 -25 -9 1
366 3 13.885211520821292 1.7217384976941779 37.88194972914203 -25 -9 1
377 3 12.63607301713561 2.6002038670968615 35.81202790418603 -25 -9 1
1012 3 11.392264357245253 0.8189633899540085 37.88042073858358 -25 -9 1
374 3 12.682725211414379 5.278831608212545 39.92235773306306 -25 -9 1
383 3 0.26422602544449525 6.124529673438085 35.80491094899105 -25 -9 1
426 3 1.518137575840026 5.256621779370146 37.878402195960255 -25 -9 1
431 3 2.741907910904239 4.367746006746281 35.82264352099416 -25 -9 1
432 3 2.7441530225647557 7.005608585835821 35.81581913555887 -25 -9 1
376 3 13.921133107014283 7.042136576362977 42.02432669679987 -25 -9 1
435 3 5.216107072993816 7.875398138111335 35.82703047218735 -25 -9 1
433 3 3.99140178475251 6.128175031349953 37.89886849958644 -25 -9 1
411 3 5.218983106439801 5.238889740839544 35.83331045448865 -25 -9 1
412 3 6.456702926270149 4.35235716365963 37.92037424519649 -25 -9 1
413 3 6.457179137508898 6.991170883693421 37.91543912471215 -25 -9 1
417 3 7.692266099061781 6.105879525217509 35.83741434377082 -25 -9 1
390 3 8.93007204588315 5.224879865182868 37.91184034180165 -25 -9 1
394 3 10.16626483769845 4.347444138901075 35.82064921310583 -25 -9 1
395 3 10.16369104856067 6.983822949007168 35.81933621287633 -25 -9 1
379 3 13.89807081193853 4.372327847749489 37.86923509918598 -25 -9 1
380 3 13.893434465354702 7.006683647488898 37.8697647443762 -25 -9 1
378 3 12.643436942102584 5.236816040969548 35.805028618681405 -25 -9 1
396 3 11.413052458924097 6.115785055885302 37.88393209856873 -25 -9 1
386 3 8.8740397027784 5.263912191651373 42.09691804352825 -25 -9 1
419 3 0.2757784257919416 0.846931187408532 39.95879411499718 -25 -9 1
421 3 1.5760522064545028 2.666673054961089 42.027623350851336 -25 -9 1
400 3 2.7634582321104864 1.7519991700369502 39.99010087732926 -25 -9 1
1014 3 4.022628358770658 0.8667190198633231 42.09669450366845 -25 -9 1
402 3 4.015828202251681 3.522152796120749 42.08092441022864 -25 -9 1
406 3 5.226618592957724 2.610534227270835 39.99975782702104 -25 -9 1
381 3 6.443942959131257 1.712802874205634 42.10129564015588 -25 -9 1
414 3 7.687814919362645 6.111776570004157 40.011250255384184 -25 -9 1
1013 3 7.6708442840365345 0.8150096293667998 39.9862481917322 -25 -9 1
384 3 7.677627068242534 3.463333178506019 40.00164015311706 -25 -9 1
385 3 8.833907899054125 2.5548986645296434 42.07492191036924 -25 -9 1
367 3 10.13497495648262 1.659816929155222 39.941429261285634 -25 -9 1
391 3 10.128931952700578 4.375223971406734 39.92057701196931 -25 -9 1
420 3 0.2935946021464737 3.51470226244769 39.94353985981282 -25 -9 1
365 3 13.930146802459108 1.7086120956262156 41.93210681682875 -25 -9 1
373 3 12.682431076404036 2.574619099398784 39.89313563393358 -25 -9 1
368 3 11.35522971702842 0.7299407849822491 42.00519039956956 -25 -9 1
369 2 11.357540498641168 3.511075032980322 41.979663204282126 -25 -9 1
436 3 0.29213479052099406 6.154792534439084 39.9353031768131 -25 -9 1
422 3 1.557604439399007 5.31008051245346 42.025261595104354 -25 -9 1
427 3 2.7687015334762575 4.389355592018208 39.96777544403802 -25 -9 1
428 3 2.7653572131111916 7.0242337070179754 39.96273653698896 -25 -9 1
429 3 4.010872784861545 6.154775845887664 42.07111488136944 -25 -9 1
407 3 5.229574375654905 5.2482217028072835 39.99625937842562 -25 -9 1
408 3 6.440961211249636 4.368123086194142 42.10921351994606 -25 -9 1
409 3 6.455188057189371 7.000274661603627 42.106462977370235 -25 -9 1
392 3 10.16520923982853 6.997403080613701 39.983527008402234 -25 -9 1
418 3 8.924598652772026 7.861292108123534 37.90760785110687 -25 -9 1
399 3 12.640365834140974 7.8703493877947865 35.80384999752716 -25 -9 1
434 3 5.225845826919412 7.881482968988504 39.991162589624615 -25 -9 1
416 3 8.908876145740082 7.869398111182586 42.09900435195765 -25 -9 1
398 3 12.654865893271023 7.8845849428918955 39.94933431140107 -25 -9 1
1082 2 0.38618269477355427 0.8102018110258362 44.08469263443494 -25 -9 1
497 3 0.4270398475229698 3.613128075815188 44.07605673415412 -25 -9 1
498 3 1.7202331967720683 2.7080304820531436 46.23708481543807 -25 -9 1
476 3 2.8938309397594053 1.788139647619438 44.18623553720975 -25 -9 1
446 2 12.591975004940668 5.497606122470443 48.51425869032087 -25 -9 1
478 3 4.070210320994821 3.5905127317194596 46.33903989735046 -25 -9 1
477 3 4.118146243697418 0.8363765814993659 46.305734364730526 -25 -9 1
483 3 5.243829578263768 2.6376488837390277 44.22425085756909 -25 -9 1
454 3 6.433435062292491 1.7268091169974502 46.38556400992945 -25 -9 1
448 3 13.95541574978949 7.307026624493691 50.856319618967085 -25 -9 1
460 3 7.624386897263187 3.4914099811930854 44.219495101828734 -25 -9 1
459 3 7.63980477398234 0.7974163213484786 44.20526685157084 -25 -9 1
461 3 8.72141826880431 2.5986710588341153 46.29273728211524 -25 -9 1
442 3 9.993559751955065 1.65909821606211 44.10540196377579 -25 -9 1
444 2 11.251729283940081 3.585857548946353 46.25078361731245 -25 -9 1
447 2 13.925754871861097 4.609357879722206 50.841567514592974 -25 -9 1
438 2 13.972726375576503 1.7324698213437373 46.27767167905026 -25 -9 1
449 2 12.65274201697936 2.6070701642140417 44.071412207722425 -25 -9 1
443 2 11.257222719840371 0.7083581796603002 46.222375377935116 -25 -9 1
511 3 0.3570727855212378 6.246915946783574 44.10588725936191 -25 -9 1
499 3 1.6929437275209955 5.407867726013922 46.26849641366426 -25 -9 1
505 3 2.808057887587787 7.072958796452518 44.164404430368876 -25 -9 1
504 3 2.8184405467293154 4.454739114927325 44.16822062831403 -25 -9 1
506 3 4.03339001158129 6.221884974850408 46.35735947422841 -25 -9 1
484 3 5.219255731844248 5.284518030779213 44.2194983053102 -25 -9 1
486 3 6.415969348790782 7.0378252713229426 46.39835538465296 -25 -9 1
485 3 6.404002015677042 4.417711735077798 46.38966918023418 -25 -9 1
490 3 7.638981769910308 6.14494811670782 44.23446141788991 -25 -9 1
462 3 8.764677052501478 5.339419640478335 46.31904832798068 -25 -9 1
467 3 10.02598805019656 4.447103469319446 44.15348523433396 -25 -9 1
468 3 10.122425357261575 7.032137011225246 44.20331010407434 -25 -9 1
451 2 13.971988777932951 4.560868124616089 46.218230481347064 -25 -9 1
452 3 13.91433467583921 7.191305971403907 46.26011718325628 -25 -9 1
450 3 12.644053492063435 5.417631033409401 44.09120643721003 -25 -9 1
469 3 11.312998186583785 6.311435002956792 46.2818625221873 -25 -9 1
492 2 0.40308083392140337 0.7588533067215337 48.51131162030229 -25 -9 1
493 2 0.4364656735334507 3.6437762994238234 48.504376609682254 -25 -9 1
494 2 1.7168875423372778 2.728358665939008 50.83688951437293 -25 -9 1
473 2 2.9759332366856706 1.8044463238887944 48.50086053560844 -25 -9 1
475 3 4.208068178276908 3.663355616549445 50.845678818542844 -25 -9 1
474 2 4.2556517200397135 0.8269988832999847 50.87804780183974 -25 -9 1
479 3 5.346100782231738 2.704012568868195 48.60710033835169 -25 -9 1
453 3 6.530369259728791 1.8006411592505034 50.88356510754919 -25 -9 1
456 3 7.520356751646966 3.536176591569359 48.60398253344197 -25 -9 1
465 2 11.255252961871754 6.382140817810498 50.83965375434344 -25 -9 1
455 3 7.5473986187833075 0.7864458242294096 48.55909907913912 -25 -9 1
457 3 8.707008607386282 2.6590860451377853 50.8492093919452 -25 -9 1
439 2 9.930759167639815 1.6846625207222132 48.536002765506296 -25 -9 1
441 2 11.243658206981047 3.574544094104776 50.831322301833346 -25 -9 1
440 2 11.298270116295104 0.7049468241416539 50.833712078462305 -25 -9 1
437 2 13.933433859613595 1.728931258354882 50.83558694119202 -25 -9 1