LAMMPS (22 Dec 2022)
OMP_NUM_THREADS environment is not set. Defaulting to 1 thread. (../comm.cpp:98)
  using 1 OpenMP thread(s) per MPI task
# general variables
variable	temperature equal 300 #change this to the temperature of interest
variable	nsteps_run equal 5000000 # 1000000

# general settings
units		metal
dimension 3
boundary	p p p

#processors      3 3 3
atom_style	atomic

# ------------------- ATOM DEFINE ------------------------------

variable        latparam equal 3.03698999999982             #variable

variable        xl equal 0
variable        xh equal 3
variable        yl equal 0
variable        yh equal 3
variable        zl equal 0
variable        zh equal 16

lattice         bcc ${latparam} orient x 1 1 -2 orient y 1 1 1 orient z 1 -1 0
lattice         bcc 3.03698999999982 orient x 1 1 -2 orient y 1 1 1 orient z 1 -1 0
Lattice spacing in x,y,z = 4.9593839 5.260221 4.2949524
region          mybox block ${xl} ${xh} ${yl} ${yh} ${zl} ${zh}
region          mybox block 0 ${xh} ${yl} ${yh} ${zl} ${zh}
region          mybox block 0 3 ${yl} ${yh} ${zl} ${zh}
region          mybox block 0 3 0 ${yh} ${zl} ${zh}
region          mybox block 0 3 0 3 ${zl} ${zh}
region          mybox block 0 3 0 3 0 ${zh}
region          mybox block 0 3 0 3 0 16

create_box      5 mybox
Created orthogonal box = (0 0 0) to (14.878152 15.780663 68.719239)
  1 by 2 by 8 MPI processor grid

mass 1 180.948
mass 2 92.9064
mass 3 50.9415
mass 4 95.94
mass 5 183.84

create_atoms 3 box
Created 1152 atoms
  using lattice units in orthogonal box = (0 0 0) to (14.878152 15.780663 68.719239)
  create_atoms CPU = 0.001 seconds
set type 3 type/ratio 2 0.1 384
Setting atom values ...
  115 settings made for type/ratio

# ----------------------- FORCE FIELDS -----------------------
pair_style mlip mlip.ini
pair_coeff * *

# ------------------------- SETTINGS --------------------------
timestep 0.001
delete_atoms overlap 2 all all
System init for delete_atoms ...
Neighbor list info ...
  update: every = 1 steps, delay = 0 steps, check = yes
  max neighbors/atom: 2000, page size: 100000
  master list distance cutoff = 6.8
  ghost atom cutoff = 6.8
  binsize = 3.4, bins = 5 5 21
  2 neighbor lists, perpetual/occasional/extra = 1 1 0
  (1) command delete_atoms, occasional, copy from (2)
      attributes: full, newton on
      pair build: copy
      stencil: none
      bin: none
  (2) pair mlip, perpetual
      attributes: full, newton on
      pair build: full/bin/atomonly
      stencil: full/bin/3d
      bin: standard
Deleted 0 atoms, new total = 1152
velocity all create ${temperature} 4928459 rot yes dist gaussian
velocity all create 300 4928459 rot yes dist gaussian

fix 1 all atom/swap 1 1 114514 ${temperature} types 3 2
fix 1 all atom/swap 1 1 114514 300 types 3 2
fix temp all npt temp ${temperature} ${temperature} 0.1 iso 0 0 0.1
fix temp all npt temp 300 ${temperature} 0.1 iso 0 0 0.1
fix temp all npt temp 300 300 0.1 iso 0 0 0.1
thermo 1000
thermo_style custom step pe ke etotal time cpu tpcpu

dump 1 all custom 20000 dump.* id type x y z
run ${nsteps_run}
run 5000000
Neighbor list info ...
  update: every = 1 steps, delay = 0 steps, check = yes
  max neighbors/atom: 2000, page size: 100000
  master list distance cutoff = 6.8
  ghost atom cutoff = 6.8
  binsize = 3.4, bins = 5 5 21
  1 neighbor lists, perpetual/occasional/extra = 1 0 0
  (1) pair mlip, perpetual
      attributes: full, newton on
      pair build: full/bin/atomonly
      stencil: full/bin/3d
      bin: standard
Per MPI rank memory allocation (min/avg/max) = 4.355 | 4.355 | 4.355 Mbytes
   Step         PotEng         KinEng         TotEng          Time           CPU           T/CPU     
         0  -10533.676      44.633528     -10489.042      0              0              0            
      1000  -10508.901      42.393333     -10466.507      1              112.70676      0.0088725821 
      2000  -10508.463      46.029841     -10462.433      2              227.03736      0.0087465649 
      3000  -10508.527      43.570996     -10464.956      3              342.05094      0.0086946254 
      4000  -10509.216      45.830563     -10463.385      4              457.4805       0.0086632921 
      5000  -10510.765      44.400978     -10466.364      5              572.30085      0.0087092577 
      6000  -10510.106      45.865133     -10464.241      6              686.05155      0.0087911547 
      7000  -10509.1        46.250501     -10462.85       7              799.33009      0.0088277971 
      8000  -10511.974      45.853647     -10466.12       8              913.52448      0.0087569981 
      9000  -10510.605      45.24234      -10465.362      9              1027.4305      0.0087791636 
     10000  -10510.736      45.653228     -10465.083      10             1140.9468      0.0088093089 
     11000  -10512.339      44.876519     -10467.463      11             1256.1824      0.0086778738 
     12000  -10508.489      45.208912     -10463.281      12             1371.9981      0.0086344084 
     13000  -10512.318      45.611707     -10466.706      13             1489.0671      0.0085419727 
     14000  -10512.959      45.742996     -10467.216      14             1605.7658      0.0085690739 
     15000  -10510.693      43.762626     -10466.931      15             1723.7478      0.0084758739 
     16000  -10512.481      44.168854     -10468.312      16             1840.9558      0.0085318363 
     17000  -10510.445      45.023718     -10465.421      17             1958.7003      0.008492968  
     18000  -10511.482      43.944568     -10467.538      18             2076.0217      0.0085235949 
     19000  -10514.349      45.175448     -10469.174      19             2189.3998      0.0088200437 
     20000  -10512.573      44.820325     -10467.753      20             2302.9164      0.0088092839 
     21000  -10514.288      45.000591     -10469.287      21             2417.3168      0.0087412305 
     22000  -10511.845      45.526027     -10466.319      22             2529.6711      0.008900411  
     23000  -10512.225      44.048131     -10468.176      23             2639.8403      0.0090769509 
     24000  -10511.475      45.773313     -10465.702      24             2749.5015      0.0091189927 
     25000  -10512.344      44.968105     -10467.375      25             2858.7415      0.0091541565 
     26000  -10512.235      44.295803     -10467.939      26             2967.8256      0.0091672429 
     27000  -10509.541      45.799553     -10463.742      27             3076.3139      0.0092175787 
     28000  -10512.856      45.062222     -10467.794      28             3185.1496      0.0091881637 
     29000  -10511.341      44.891242     -10466.45       29             3293.8751      0.009197473  
     30000  -10511.262      44.612065     -10466.65       30             3403.733       0.0091026707 
     31000  -10514.688      45.562845     -10469.125      31             3513.5176      0.0091087466 
     32000  -10511.397      46.104087     -10465.293      32             3623.5899      0.0090849326 
     33000  -10513.394      44.608595     -10468.785      33             3733.0326      0.0091372074 
     34000  -10512.384      44.628822     -10467.755      34             3843.1419      0.0090818822 
     35000  -10513.196      44.258644     -10468.937      35             3952.2303      0.0091668804 
     36000  -10512.344      45.904846     -10466.44       36             4061.7665      0.0091293964 
     37000  -10514.092      44.034857     -10470.057      37             4171.0738      0.0091485194 
     38000  -10512.893      44.204191     -10468.689      38             4280.0348      0.0091776009 
     39000  -10512.609      43.144173     -10469.465      39             4388.7748      0.0091962494 
     40000  -10512.856      45.305434     -10467.55       40             4497.2681      0.0092171596 
     41000  -10514.419      44.740891     -10469.678      41             4606.969       0.009115696  
     42000  -10512.064      44.571659     -10467.493      42             4715.6764      0.009199001  
     43000  -10513.913      45.171087     -10468.742      43             4825.1717      0.0091328163 
     44000  -10513.701      43.193945     -10470.507      44             4933.9415      0.0091937215 
     45000  -10513.262      45.120291     -10468.141      45             5042.6083      0.0092024494 
     46000  -10514.162      43.771326     -10470.391      46             5151.1476      0.0092132504 
     47000  -10513.185      44.992812     -10468.193      47             5259.6868      0.0092132595 
     48000  -10514.74       43.225747     -10471.514      48             5368.5496      0.0091858744 
     49000  -10514.905      45.190764     -10469.714      49             5477.4436      0.0091832441 
     50000  -10512.497      45.790132     -10466.707      50             5586.1415      0.0091998118 
     51000  -10513.618      45.112578     -10468.505      51             5695.3526      0.009156576  
     52000  -10514.61       43.696239     -10470.914      52             5804.2303      0.0091846146 
     53000  -10512.174      43.98577      -10468.188      53             5913.3104      0.0091675757 
     54000  -10514.793      42.603677     -10472.189      54             6022.7154      0.0091403513 
     55000  -10513.677      45.84081      -10467.837      55             6132.4607      0.0091120114 
     56000  -10515.657      44.7418       -10470.915      56             6242.2797      0.0091058851 
     57000  -10513.991      45.32063      -10468.671      57             6352.2844      0.0090905266 
     58000  -10516.324      45.165275     -10471.159      58             6462.915       0.0090390902 
     59000  -10512.466      44.440608     -10468.025      59             6573.8305      0.009015873  
     60000  -10514.575      45.228806     -10469.347      60             6686.0293      0.0089127514 
     61000  -10515.74       42.972242     -10472.768      61             6797.6099      0.0089621315 
     62000  -10514.169      45.309346     -10468.86       62             6910.6786      0.0088441813 
     63000  -10515.269      45.836774     -10469.432      63             7022.8274      0.0089167177 
     64000  -10515.6        44.10636      -10471.494      64             7135.3973      0.0088833706 
     65000  -10514.659      45.627988     -10469.031      65             7250.2671      0.0087055124 
     66000  -10516.539      43.583347     -10472.955      66             7365.1287      0.008706131  
     67000  -10515.227      45.615194     -10469.612      67             7480.7535      0.0086486633 
     68000  -10515.326      43.00964      -10472.317      68             7597.3963      0.0085731784 
     69000  -10512.699      43.235048     -10469.464      69             7714.1426      0.0085655819 
     70000  -10515.356      42.874604     -10472.481      70             7830.8971      0.0085649835 
     71000  -10513.473      42.802331     -10470.671      71             7946.4543      0.0086537183 
     72000  -10514.4        45.313381     -10469.086      72             8061.4007      0.0086997126 
     73000  -10515.745      43.595637     -10472.149      73             8175.4243      0.0087701095 
     74000  -10515.076      47.178447     -10467.897      74             8289.8188      0.008741681  
     75000  -10516.434      43.932899     -10472.501      75             8403.0925      0.0088281725 
     76000  -10515.298      46.431312     -10468.866      76             8513.7178      0.009039524  
     77000  -10516.839      44.411593     -10472.427      77             8625.4152      0.0089527601 
     78000  -10516.403      46.024475     -10470.378      78             8736.4369      0.0090072492 
     79000  -10518.383      43.250817     -10475.132      79             8847.0373      0.0090415591 
     80000  -10514.092      44.075316     -10470.016      80             8957.9713      0.0090143657 
     81000  -10517.361      43.463933     -10473.898      81             9068.118       0.0090788079 
     82000  -10514.832      43.935233     -10470.897      82             9177.9037      0.0091086482 
     83000  -10517.891      43.733042     -10474.158      83             9287.5917      0.0091167712 
     84000  -10515.67       45.0724       -10470.598      84             9396.7523      0.0091608106 
     85000  -10516.766      44.106301     -10472.66       85             9506.4516      0.0091158318 
     86000  -10515.824      43.566604     -10472.257      86             9616.5055      0.0090864557 
     87000  -10516.87       45.267123     -10471.603      87             9725.9976      0.0091330765 
     88000  -10515.655      44.709702     -10470.945      88             9835.4466      0.0091366797 
     89000  -10518.115      42.698565     -10475.416      89             9944.9644      0.0091309328 
     90000  -10514.61       44.079087     -10470.531      90             10054.275      0.0091482741 
     91000  -10517.613      44.024336     -10473.588      91             10163.377      0.0091656963 
     92000  -10515.355      43.517095     -10471.838      92             10272.879      0.0091322684 
     93000  -10518.272      44.250936     -10474.022      93             10382.556      0.0091177103 
     94000  -10516.767      45.918        -10470.849      94             10492.673      0.0090812311 
     95000  -10515.675      43.519081     -10472.156      95             10602.865      0.0090750603 
     96000  -10517.273      45.204351     -10472.069      96             10713.613      0.009029517  
     97000  -10516.945      45.133147     -10471.811      97             10824.617      0.0090086882 
     98000  -10515.189      43.448628     -10471.74       98             10935.036      0.0090563752 
     99000  -10517.793      42.800324     -10474.992      99             11045.438      0.0090578238 
    100000  -10515.701      44.82007      -10470.881      100            11156.464      0.0090069247 
    101000  -10515.903      44.078449     -10471.825      101            11268.301      0.0089415437 
    102000  -10517.547      44.037899     -10473.51       102            11380.699      0.0088970126 
    103000  -10515.508      44.065949     -10471.442      103            11494.838      0.0087611808 
    104000  -10517.911      44.557689     -10473.353      104            11609.851      0.0086946764 
    105000  -10516.62       45.472693     -10471.147      105            11723.962      0.008763437  
    106000  -10518.58       42.442806     -10476.138      106            11838.786      0.0087089442 
    107000  -10516.411      45.050621     -10471.361      107            11954.4        0.0086494967 
    108000  -10518.186      43.939141     -10474.247      108            12070.647      0.0086023943 
    109000  -10516.88       44.633876     -10472.246      109            12186.817      0.0086080326 
    110000  -10516.986      45.865356     -10471.121      110            12303.886      0.0085419948 
    111000  -10514.897      44.079421     -10470.817      111            12419.313      0.0086634416 
    112000  -10517.416      45.352659     -10472.064      112            12534.404      0.0086887699 
    113000  -10516.233      45.324243     -10470.909      113            12648.969      0.0087287453 
    114000  -10516.772      44.630588     -10472.141      114            12762.117      0.0088379568 
    115000  -10516.93       44.409651     -10472.52       115            12874.226      0.0089198479 
    116000  -10514.834      43.613034     -10471.221      116            12986.339      0.0089196318 
    117000  -10516.841      45.701204     -10471.139      117            13097.639      0.0089847133 
    118000  -10517.39       45.054721     -10472.336      118            13208.225      0.0090426879 
    119000  -10517.767      43.85333      -10473.913      119            13317.973      0.0091117735 
    120000  -10516.756      44.800394     -10471.956      120            13427.577      0.0091237979 
    121000  -10517.354      45.194907     -10472.159      121            13537.008      0.0091381364 
    122000  -10514.257      42.339023     -10471.918      122            13646.199      0.0091583208 
    123000  -10517.997      41.975504     -10476.021      123            13755.434      0.0091545967 
    124000  -10517.157      45.617062     -10471.54       124            13865.428      0.0090913907 
    125000  -10517.423      46.589843     -10470.833      125            13975.388      0.0090941834 
    126000  -10516.577      44.925223     -10471.652      126            14085.256      0.0091017981 
    127000  -10515.961      44.777357     -10471.184      127            14195.237      0.0090925245 
    128000  -10518.2        45.38053      -10472.819      128            14305.755      0.0090483141 
    129000  -10512.571      44.034802     -10468.536      129            14417.787      0.0089260102 
    130000  -10519.434      46.558826     -10472.875      130            14530.624      0.0088623224 
    131000  -10515.047      44.944466     -10470.103      131            14643.462      0.0088622866 
    132000  -10518.128      44.318789     -10473.809      132            14756.984      0.0088088711 
    133000  -10517.078      46.022129     -10471.056      133            14872.038      0.0086915453 
    134000  -10518.956      44.375272     -10474.58       134            14988.634      0.0085765957 
    135000  -10514.294      43.371339     -10470.923      135            15104.128      0.0086584655 
    136000  -10517.364      43.845584     -10473.519      136            15219.685      0.0086537498 
    137000  -10516.84       45.977008     -10470.863      137            15335.002      0.008671731  
    138000  -10516.855      43.737707     -10473.117      138            15449.845      0.0087075662 
    139000  -10516.737      45.686187     -10471.05       139            15563.636      0.0087880569 
    140000  -10518.627      43.260068     -10475.367      140            15675.358      0.0089507618 
    141000  -10516.542      45.295883     -10471.246      141            15786.355      0.0090092639 
    142000  -10516.633      45.401846     -10471.231      142            15896.363      0.0090902452 
    143000  -10518.057      44.259759     -10473.797      143            16006.59       0.0090722181 
    144000  -10517.994      45.015344     -10472.978      144            16117.774      0.0089941091 
    145000  -10516.728      44.877522     -10471.851      145            16229.476      0.008952361  
    146000  -10517.932      44.931315     -10473.001      146            16342.295      0.0088637205 
    147000  -10517.076      46.480015     -10470.596      147            16459.055      0.0085645815 
    148000  -10516.239      44.284415     -10471.955      148            16580.372      0.0082429294 
    149000  -10516.37       44.404635     -10471.965      149            16701.511      0.0082549685 
    150000  -10516.98       45.933031     -10471.047      150            16825.481      0.0080664381 
    151000  -10516.684      42.442212     -10474.242      151            16950.415      0.0080042587 
    152000  -10515.873      43.769357     -10472.103      152            17075.063      0.0080225655 
    153000  -10517.472      46.212065     -10471.26       153            17199.065      0.0080643961 
    154000  -10518.062      44.914496     -10473.147      154            17321.912      0.0081401772 
    155000  -10517.309      46.420468     -10470.888      155            17445.38       0.0080992539 
    156000  -10518.983      44.480351     -10474.503      156            17570.241      0.0080089595 
    157000  -10516.279      44.785818     -10471.493      157            17694.155      0.0080700693 
    158000  -10518.508      45.194126     -10473.314      158            17815.748      0.0082241759 
    159000  -10515.373      44.447713     -10470.925      159            17937.668      0.0082021223 
    160000  -10517.134      44.85821      -10472.276      160            18060.714      0.0081269932 
    161000  -10517.228      45.848605     -10471.379      161            18185.034      0.0080438149 
    162000  -10516.641      45.814254     -10470.827      162            18309.528      0.0080325172 
    163000  -10515.94       43.319801     -10472.621      163            18434.277      0.0080160851 
    164000  -10519.017      44.237464     -10474.779      164            18559.891      0.0079608958 
    165000  -10517.037      45.608108     -10471.429      165            18687.083      0.0078621083 
    166000  -10517.096      43.752566     -10473.343      166            18813.818      0.0078904609 
    167000  -10519.469      45.082903     -10474.386      167            18940.454      0.007896691  
    168000  -10518.389      45.992072     -10472.397      168            19066.945      0.0079056918 
    169000  -10518.273      43.592667     -10474.68       169            19192.298      0.0079774621 
    170000  -10518.79       46.035147     -10472.755      170            19315.76       0.0080996598 
    171000  -10518.18       43.299092     -10474.881      171            19437.558      0.0082102976 
    172000  -10517.304      43.020494     -10474.283      172            19562.041      0.0080332105 
    173000  -10515.065      44.913844     -10470.151      173            19687.44       0.0079745818 
    174000  -10518.67       44.722224     -10473.947      174            19810.771      0.0081082273 
    175000  -10520.263      45.314297     -10474.949      175            19932.37       0.0082237986 
    176000  -10516.486      44.064439     -10472.422      176            20052.236      0.0083426348 
    177000  -10517.306      43.613177     -10473.693      177            20171.499      0.0083848219 
    178000  -10515.714      43.486038     -10472.228      178            20290.353      0.0084137069 
    179000  -10519.033      44.781959     -10474.251      179            20406.434      0.008614674  
    180000  -10515.135      45.673176     -10469.461      180            20518.436      0.0089283692 
    181000  -10518.828      44.542194     -10474.286      181            20630.95       0.0088878186 
    182000  -10515.449      45.036725     -10470.412      182            20744.031      0.0088432383 
    183000  -10517.938      44.384035     -10473.554      183            20859.148      0.0086867972 
    184000  -10516.714      44.608217     -10472.106      184            20972.854      0.0087946131 
    185000  -10519.25       44.964131     -10474.286      185            21088.472      0.0086491699 
    186000  -10517.742      44.732542     -10473.01       186            21203.923      0.0086616501 
    187000  -10517.748      45.489468     -10472.258      187            21319.138      0.0086794559 
    188000  -10515.961      45.881482     -10470.08       188            21433.727      0.0087268308 
    189000  -10518.301      43.826076     -10474.474      189            21547.037      0.0088253164 
    190000  -10516.718      44.062448     -10472.655      190            21659.826      0.0088661564 
    191000  -10516.375      46.69267      -10469.682      191            21772.639      0.0088641944 
    192000  -10517.344      43.641193     -10473.703      192            21882.555      0.009097867  
    193000  -10517.844      44.297863     -10473.546      193            21992.154      0.0091241384 
    194000  -10516.177      46.008379     -10470.169      194            22101.731      0.0091260195 
    195000  -10517.884      44.120221     -10473.764      195            22211.716      0.0090921492 
    196000  -10517.032      46.073652     -10470.959      196            22321.052      0.0091461445 
    197000  -10520.398      45.614891     -10474.783      197            22430.238      0.0091587072 
    198000  -10517.125      44.93863      -10472.186      198            22539.913      0.0091178139 
    199000  -10517.084      43.707899     -10473.376      199            22649.391      0.0091342471 
    200000  -10515.152      45.060777     -10470.092      200            22758.696      0.0091487033 
    201000  -10518.31       44.05504      -10474.254      201            22868.162      0.0091352456 
    202000  -10517.09       46.236147     -10470.854      202            22977.115      0.0091782802 
    203000  -10518.607      45.52397      -10473.083      203            23086.231      0.0091645574 
    204000  -10515.237      43.49799      -10471.739      204            23195.57       0.0091459181 
    205000  -10519.61       43.291616     -10476.319      205            23304.896      0.0091469389 
    206000  -10516.707      44.167748     -10472.539      206            23414.981      0.0090839147 
    207000  -10516.492      46.177758     -10470.315      207            23524.061      0.0091675372 
    208000  -10519.576      46.446025     -10473.13       208            23634.237      0.0090763624 
    209000  -10517.968      45.909403     -10472.058      209            23744.758      0.0090480762 
    210000  -10518.617      43.456244     -10475.161      210            23857.044      0.0089058447 
    211000  -10516.906      45.135569     -10471.77       211            23970.015      0.0088518207 
    212000  -10517.888      43.222364     -10474.665      212            24083.122      0.0088411891 
    213000  -10515.164      45.725485     -10469.439      213            24195.376      0.0089083947 
    214000  -10518.347      44.825137     -10473.522      214            24307.158      0.0089459724 
    215000  -10518.121      46.1517       -10471.969      215            24419.007      0.0089405953 
    216000  -10517.574      42.341079     -10475.233      216            24530.203      0.0089931167 
    217000  -10517.335      44.849848     -10472.485      217            24641.012      0.0090246076 
    218000  -10518.852      45.924073     -10472.928      218            24750.753      0.0091123522 
    219000  -10518.354      44.545056     -10473.809      219            24860.48       0.0091134778 
    220000  -10516.06       45.416139     -10470.644      220            24969.731      0.0091532732 
    221000  -10517.738      44.788289     -10472.95       221            25079.183      0.009136422  
    222000  -10516.613      44.539007     -10472.074      222            25189.002      0.0091058903 
    223000  -10517.045      44.023598     -10473.022      223            25299.315      0.0090651176 
    224000  -10519.381      44.868266     -10474.512      224            25409.283      0.0090935064 
    225000  -10515.756      44.263209     -10471.493      225            25519.544      0.0090693957 
    226000  -10518.258      43.480708     -10474.777      226            25629.639      0.0090831218 
    227000  -10516.661      43.858266     -10472.802      227            25740.115      0.0090516814 
    228000  -10517.637      44.557664     -10473.079      228            25851.309      0.0089933616 
    229000  -10518.23       44.672644     -10473.557      229            25961.608      0.0090662291 
    230000  -10517.403      45.271128     -10472.132      230            26072.675      0.0090035854 
    231000  -10518.569      44.875117     -10473.694      231            26183.794      0.0089993597 
    232000  -10517.138      43.977589     -10473.16       232            26295.664      0.0089389623 
    233000  -10517.63       45.139037     -10472.491      233            26410.322      0.008721525  
    234000  -10517.18       45.544966     -10471.635      234            26526.129      0.0086351285 
    235000  -10517.594      44.162753     -10473.431      235            26644.557      0.0084438908 
    236000  -10517.339      43.773892     -10473.565      236            26764.045      0.0083690673 
    237000  -10518.338      45.380945     -10472.958      237            26884.194      0.0083230113 
    238000  -10517.024      45.169712     -10471.855      238            27008.844      0.00802242   
    239000  -10517.582      44.47526      -10473.107      239            27133.137      0.008045545  
    240000  -10518.576      44.218405     -10474.358      240            27258.898      0.0079516038 
    241000  -10518.349      46.623887     -10471.725      241            27384.281      0.0079755381 
    242000  -10516.252      44.561191     -10471.691      242            27509.553      0.0079826341 
    243000  -10518.781      44.077735     -10474.703      243            27635.266      0.007954651  
    244000  -10517.51       44.630905     -10472.879      244            27759.532      0.008047245  
    245000  -10516.184      43.798117     -10472.386      245            27883.379      0.0080744439 
    246000  -10519.372      44.679978     -10474.692      246            28003.52       0.0083235987 
    247000  -10517.231      45.513534     -10471.717      247            28123.64       0.0083249797 
    248000  -10516.967      45.080464     -10471.886      248            28244.552      0.0082704663 
    249000  -10518.174      45.598329     -10472.576      249            28365.203      0.0082883845 
    250000  -10515.89       43.333684     -10472.556      250            28486.653      0.0082338324 
    251000  -10516.479      45.100407     -10471.378      251            28610.349      0.0080843687 
    252000  -10517.46       43.385037     -10474.075      252            28735.641      0.007981328  
    253000  -10517.173      45.753353     -10471.42       253            28861.483      0.007946457  
    254000  -10517.392      43.966091     -10473.426      254            28985.903      0.0080372999 
    255000  -10520.104      43.511773     -10476.592      255            29110.437      0.008029946  
    256000  -10517.496      46.126924     -10471.369      256            29233.758      0.0081089307 
    257000  -10518.21       46.951018     -10471.259      257            29355.643      0.0082044245 
    258000  -10517.305      43.092176     -10474.213      258            29478.412      0.0081454166 
    259000  -10518.393      42.813081     -10475.58       259            29600.09       0.00821837   
    260000  -10518.287      43.444828     -10474.842      260            29720.371      0.0083139036 
    261000  -10515.852      45.171411     -10470.681      261            29839.512      0.0083934183 
    262000  -10518.056      44.68438      -10473.371      262            29957.6        0.0084682707 
    263000  -10516.882      44.086137     -10472.795      263            30074.936      0.0085224691 
    264000  -10517.349      44.646135     -10472.703      264            30189.686      0.0087146693 
    265000  -10517.623      43.022583     -10474.601      265            30302.777      0.0088424026 
    266000  -10517.294      45.366231     -10471.928      266            30414.991      0.0089115676 
    267000  -10517.97       45.17942      -10472.79       267            30525.66       0.0090359117 
    268000  -10517.402      45.962344     -10471.439      268            30636.042      0.0090594324 
    269000  -10518.372      44.527127     -10473.845      269            30745.936      0.0090997338 
    270000  -10518.459      44.46739      -10473.991      270            30854.907      0.0091767379 
    271000  -10516.828      44.735928     -10472.092      271            30963.561      0.0092035227 
    272000  -10519.082      44.037657     -10475.044      272            31072.482      0.0091809633 
    273000  -10517.503      45.421382     -10472.082      273            31182.136      0.0091195988 
    274000  -10518.292      44.718381     -10473.574      274            31293.294      0.0089962278 
    275000  -10517.197      46.601443     -10470.596      275            31404.53       0.008989836  
    276000  -10516.986      43.220622     -10473.765      276            31515.876      0.0089810691 
    277000  -10518.042      44.151987     -10473.89       277            31626.594      0.0090319431 
    278000  -10517.361      44.832285     -10472.529      278            31739.41       0.0088639846 
    279000  -10517.192      42.212605     -10474.979      279            31853.161      0.0087911311 
    280000  -10516.004      44.736112     -10471.268      280            31965.901      0.0088699705 
    281000  -10518.129      43.934241     -10474.194      281            32079.862      0.0087749105 
    282000  -10517.22       44.756911     -10472.463      282            32192.395      0.0088863284 
    283000  -10518.374      42.393197     -10475.981      283            32304.084      0.0089533972 
    284000  -10517.23       45.252299     -10471.978      284            32414.258      0.0090765701 
    285000  -10516.66       43.80807      -10472.852      285            32523.952      0.0091162761 
    286000  -10518.248      47.683756     -10470.565      286            32633.647      0.009116173  
    287000  -10516.885      44.869847     -10472.016      287            32742.898      0.0091532476 
    288000  -10517.142      44.57175      -10472.57       288            32851.454      0.0092118079 
    289000  -10517.986      44.517506     -10473.468      289            32959.631      0.009244067  
    290000  -10519.514      44.744114     -10474.77       290            33068.07       0.0092218181 
    291000  -10515.992      42.907553     -10473.085      291            33176.32       0.0092378711 
    292000  -10519.567      42.390877     -10477.177      292            33284.698      0.0092269329 
    293000  -10516.431      43.890799     -10472.54       293            33393.019      0.009231831  
    294000  -10518.127      46.162474     -10471.964      294            33501.457      0.0092218886 
    295000  -10518.188      44.260694     -10473.928      295            33610.042      0.0092093715 
    296000  -10516.243      44.13383      -10472.109      296            33718.112      0.0092532951 
    297000  -10518.197      44.070976     -10474.126      297            33826.378      0.0092364824 
    298000  -10517.322      42.655949     -10474.666      298            33935.184      0.0091906715 
    299000  -10518.259      43.699094     -10474.56       299            34044.01       0.0091889482 
    300000  -10517.043      45.877372     -10471.166      300            34156.345      0.0089019852 
    301000  -10518.658      44.892118     -10473.766      301            34269.05       0.0088726787 
    302000  -10517.149      45.066572     -10472.082      302            34382.762      0.0087941622 
    303000  -10519.966      44.314141     -10475.652      303            34495.838      0.0088435978 
    304000  -10515.931      44.894126     -10471.036      304            34608.919      0.0088432328 
    305000  -10517.567      43.954667     -10473.613      305            34722.649      0.008792749  
    306000  -10516.759      45.776942     -10470.982      306            34835.719      0.0088440987 
    307000  -10518.771      45.360391     -10473.411      307            34947.129      0.0089758098 
    308000  -10516.938      45.553379     -10471.384      308            35059.61       0.0088904472 
    309000  -10517.692      44.832003     -10472.86       309            35169.934      0.0090642076 
    310000  -10516.699      44.327846     -10472.372      310            35280.255      0.0090644038 
    311000  -10519.06       45.303121     -10473.757      311            35389.586      0.0091465348 
    312000  -10517.437      46.832817     -10470.604      312            35498.775      0.0091584788 
    313000  -10517.365      44.250633     -10473.115      313            35607.816      0.0091708217 
    314000  -10516.83       43.914363     -10472.916      314            35717.101      0.0091504358 
    315000  -10514.755      45.127937     -10469.627      315            35826.2        0.0091659577 
    316000  -10517.57       43.429958     -10474.14       316            35934.762      0.0092113331 
    317000  -10517.006      45.217194     -10471.789      317            36043.654      0.009183374  
    318000  -10517.774      43.262918     -10474.511      318            36151.817      0.009245367  
    319000  -10517.198      44.57053      -10472.628      319            36260.336      0.0092149947 
    320000  -10517.272      44.21085      -10473.061      320            36368.808      0.0092189251 
    321000  -10518.21       44.904714     -10473.305      321            36477.809      0.0091742478 
    322000  -10516.279      45.937997     -10470.341      322            36588.864      0.0090045239 
    323000  -10518.675      46.297718     -10472.378      323            36699.516      0.0090373152 
    324000  -10517.685      44.160809     -10473.525      324            36811.775      0.0089080077 
    325000  -10515.257      46.689664     -10468.567      325            36925.122      0.0088224948 
    326000  -10517.703      44.363781     -10473.339      326            37039.555      0.0087387394 
    327000  -10517.596      45.027664     -10472.568      327            37154.018      0.0087364235 
    328000  -10517.84       45.144747     -10472.696      328            37269.451      0.0086630194 
    329000  -10517.553      45.366613     -10472.186      329            37383.313      0.008782579  
    330000  -10517.546      45.892349     -10471.653      330            37497          0.0087960407 
    331000  -10517.121      45.818764     -10471.302      331            37608.84       0.0089413559 
    332000  -10516.502      43.967073     -10472.535      332            37721.593      0.0088689403 
    333000  -10515.845      44.47215      -10471.372      333            37832.559      0.0090118017 
    334000  -10516.425      46.179062     -10470.246      334            37942.675      0.009081322  
    335000  -10517.35       43.297831     -10474.053      335            38051.454      0.0091929858 
    336000  -10515.59       44.944253     -10470.646      336            38160.999      0.0091286452 
    337000  -10515.663      43.015002     -10472.648      337            38270.767      0.009110151  
    338000  -10516.314      42.187312     -10474.127      338            38381.86       0.0090014069 
    339000  -10517.158      44.938831     -10472.219      339            38493.969      0.0089198852 
    340000  -10515.415      43.50059      -10471.914      340            38609.46       0.0086587074 
    341000  -10517.57       44.411687     -10473.159      341            38725.893      0.0085886123 
    342000  -10516.126      45.110429     -10471.016      342            38843.274      0.0085193145 
    343000  -10517.258      44.344882     -10472.913      343            38963.291      0.0083321032 
    344000  -10515.399      44.573548     -10470.825      344            39082.553      0.0083848923 
    345000  -10518.213      45.461113     -10472.752      345            39203.122      0.0082940224 
    346000  -10515.329      45.578252     -10469.751      346            39322.917      0.0083476197 
    347000  -10516.68       43.972285     -10472.708      347            39441.222      0.0084526902 
    348000  -10515.601      46.323423     -10469.278      348            39558.858      0.0085008047 
    349000  -10516.998      44.050983     -10472.947      349            39677.822      0.0084059124 
    350000  -10517.726      47.262238     -10470.464      350            39800.324      0.0081631586 
    351000  -10514.968      44.163473     -10470.804      351            39923.946      0.0080891596 
    352000  -10515.01       45.276147     -10469.734      352            40049.766      0.0079478816 
    353000  -10515.302      45.319241     -10469.983      353            40176.13       0.0079136545 
    354000  -10517.828      43.171182     -10474.657      354            40302.586      0.0079078877 
    355000  -10516.259      44.716282     -10471.543      355            40428.414      0.0079473441 
    356000  -10516.483      44.837736     -10471.645      356            40554.454      0.007933988  
    357000  -10514.778      42.241988     -10472.536      357            40679.152      0.0080193327 
    358000  -10515.239      46.673877     -10468.565      358            40804.093      0.0080037795 
    359000  -10516.115      43.462261     -10472.653      359            40929.247      0.0079901708 
    360000  -10516.001      46.063971     -10469.937      360            41052.667      0.0081023987 
    361000  -10517.662      44.919974     -10472.742      361            41177.096      0.0080367241 
    362000  -10516.198      45.209159     -10470.989      362            41301.415      0.0080438164 
    363000  -10517.359      43.147402     -10474.211      363            41425.16       0.0080811665 
    364000  -10515.541      44.769808     -10470.771      364            41549.091      0.0080689725 
    365000  -10517.281      43.856294     -10473.424      365            41673.606      0.0080312114 
    366000  -10514.854      45.97194      -10468.882      366            41797.152      0.0080941309 
    367000  -10516.286      42.409009     -10473.876      367            41920.495      0.0081074444 
    368000  -10517.567      46.65456      -10470.912      368            42044.209      0.008083173  
    369000  -10517.546      43.959159     -10473.587      369            42167.46       0.0081135409 
    370000  -10515.578      45.548418     -10470.029      370            42290.669      0.0081162558 
    371000  -10517.121      44.648954     -10472.472      371            42414.395      0.0080824334 
    372000  -10516.367      45.010144     -10471.357      372            42538.817      0.008037113  
    373000  -10518.107      44.504922     -10473.602      373            42665.57       0.0078893637 
    374000  -10516.787      45.381582     -10471.406      374            42791.525      0.0079393407 
    375000  -10516.263      44.068512     -10472.195      375            42918.08       0.0079017201 
    376000  -10517.342      44.676481     -10472.665      376            43045.087      0.0078735738 
    377000  -10516.069      46.695997     -10469.373      377            43173.447      0.0077905914 
    378000  -10516.231      43.752731     -10472.478      378            43300.477      0.0078721659 
    379000  -10514.693      43.823238     -10470.87       379            43427.141      0.0078949022 
    380000  -10515.174      44.2216       -10470.953      380            43554.631      0.0078437339 
    381000  -10516.919      44.078939     -10472.84       381            43681.278      0.0078959616 
    382000  -10515.315      46.996265     -10468.318      382            43807.464      0.0079248394 
    383000  -10516.922      45.090468     -10471.831      383            43934.742      0.007856786  
    384000  -10516.468      45.176872     -10471.291      384            44061.359      0.007897872  
    385000  -10518.337      43.201956     -10475.135      385            44188.24       0.0078813735 
    386000  -10516.866      46.107696     -10470.759      386            44314.906      0.0078947884 
    387000  -10515.099      45.44933      -10469.65       387            44440.073      0.007989302  
    388000  -10515.406      42.61702      -10472.789      388            44564.274      0.008051493  
    389000  -10518.085      43.088169     -10474.997      389            44688.043      0.0080795793 
    390000  -10517.379      46.114227     -10471.265      390            44811.564      0.0080957519 
    391000  -10516.648      43.872896     -10472.775      391            44935.627      0.008060428  
    392000  -10517.085      47.44779      -10469.637      392            45058.124      0.0081634739 
    393000  -10516.779      43.88782      -10472.892      393            45180.641      0.0081621095 
    394000  -10516.254      44.103044     -10472.151      394            45304.049      0.0081032249 
    395000  -10514.82       43.429048     -10471.391      395            45426.579      0.0081612522 
    396000  -10517.121      44.045249     -10473.076      396            45546.88       0.0083124957 
    397000  -10515.527      42.854413     -10472.673      397            45667.176      0.0083128019 
    398000  -10516.88       43.70752      -10473.173      398            45787.892      0.0082839063 
    399000  -10519.09       44.784547     -10474.306      399            45907.694      0.0083471503 
    400000  -10514.961      46.512448     -10468.448      400            46027.365      0.0083562033 
    401000  -10518.911      45.8017       -10473.109      401            46146.375      0.0084027099 
    402000  -10515.735      46.419512     -10469.316      402            46264.255      0.0084831977 
    403000  -10518.679      45.022729     -10473.656      403            46381.236      0.0085483488 
    404000  -10515.37       44.468902     -10470.901      404            46497.18       0.0086249028 
    405000  -10516.217      44.291835     -10471.925      405            46612.988      0.0086349634 
    406000  -10517.441      43.774082     -10473.667      406            46728.71       0.0086413964 
    407000  -10516.449      43.990345     -10472.459      407            46843.236      0.0087316185 
    408000  -10518.302      46.595931     -10471.706      408            46957.325      0.0087651046 
    409000  -10517.275      44.780524     -10472.494      409            47070.992      0.0087976397 
    410000  -10518.143      45.189184     -10472.954      410            47183.328      0.0089018362 
    411000  -10517.36       43.798269     -10473.561      411            47294.987      0.0089558978 
    412000  -10517.417      44.07611      -10473.341      412            47407.113      0.0089185134 
    413000  -10517.248      43.894718     -10473.354      413            47518.321      0.0089921616 
    414000  -10516.733      44.934304     -10471.799      414            47629.89       0.0089630583 
    415000  -10517.019      43.985791     -10473.033      415            47740.812      0.0090153522 
    416000  -10518.095      45.719454     -10472.376      416            47850.912      0.0090826498 
    417000  -10518.065      45.069079     -10472.996      417            47960.915      0.0090906529 
    418000  -10516.7        45.332522     -10471.368      418            48071.358      0.0090544257 
    419000  -10518.603      45.339451     -10473.263      419            48181.467      0.0090819457 
    420000  -10517.862      45.352442     -10472.51       420            48291.552      0.0090838611 
    421000  -10518.175      43.090125     -10475.085      421            48401.413      0.0091024276 
    422000  -10518.271      43.992602     -10474.278      422            48511.659      0.0090705967 
    423000  -10516.534      45.910789     -10470.623      423            48622.354      0.0090338255 
    424000  -10517.33       44.88015      -10472.45       424            48732.7        0.0090624113 
    425000  -10516.647      44.203913     -10472.443      425            48843.47       0.0090277638 
    426000  -10517.862      44.699483     -10473.162      426            48953.978      0.009049103  
    427000  -10517.726      44.618143     -10473.108      427            49064.636      0.0090368607 
    428000  -10515.139      46.460348     -10468.678      428            49174.839      0.0090741018 
    429000  -10517.128      44.108367     -10473.019      429            49284.97       0.0090801119 
    430000  -10515.195      45.647499     -10469.547      430            49395.281      0.0090652618 
    431000  -10517.342      44.954231     -10472.388      431            49506.093      0.0090243114 
    432000  -10518.022      44.454065     -10473.568      432            49617.592      0.0089686775 
    433000  -10517.019      44.232483     -10472.786      433            49728.728      0.0089980349 
    434000  -10517.427      44.209812     -10473.217      434            49840.403      0.0089545515 
    435000  -10517.135      45.389414     -10471.746      435            49951.536      0.0089981923 
    436000  -10517.739      43.616818     -10474.122      436            50064.104      0.008883525  
    437000  -10516.532      43.077584     -10473.455      437            50177.02       0.0088561193 
    438000  -10517.08       44.047979     -10473.032      438            50289.889      0.0088598523 
    439000  -10517.106      43.931029     -10473.175      439            50403.932      0.0087686392 
    440000  -10520.456      44.451882     -10476.004      440            50517.794      0.0087825448 
    441000  -10516.502      44.967403     -10471.535      441            50632.155      0.0087442834 
    442000  -10518.72       44.494256     -10474.225      442            50746.335      0.0087580307 
    443000  -10517.791      46.080471     -10471.711      443            50860.953      0.0087246894 
    444000  -10520.417      43.241249     -10477.176      444            50975.169      0.0087552976 
    445000  -10518.303      46.132597     -10472.17       445            51089.236      0.0087667991 
    446000  -10519.845      44.289116     -10475.556      446            51203.432      0.0087568922 
    447000  -10517.477      43.779397     -10473.697      447            51317.185      0.0087909593 
    448000  -10516.609      45.865818     -10470.743      448            51430.667      0.008812004  
    449000  -10517.742      44.13937      -10473.602      449            51543.289      0.0088792162 
    450000  -10516.881      43.66523      -10473.215      450            51656.036      0.0088694126 
    451000  -10517          43.593431     -10473.406      451            51767.224      0.0089937582 
    452000  -10516.978      45.400139     -10471.578      452            51878.274      0.0090050229 
    453000  -10518.571      44.7482       -10473.823      453            51989.468      0.0089932807 
    454000  -10517.551      45.041754     -10472.509      454            52100.874      0.0089761407 
    455000  -10517.573      46.612368     -10470.961      455            52212.166      0.0089853879 
    456000  -10517.239      45.073869     -10472.165      456            52323.079      0.0090160938 
    457000  -10518.892      44.296408     -10474.596      457            52434.373      0.0089851562 
    458000  -10517.891      44.059762     -10473.831      458            52545.975      0.0089604382 
    459000  -10519.361      45.333103     -10474.028      459            52657.258      0.0089860836 
    460000  -10516.744      44.351558     -10472.392      460            52768.203      0.0090135175 
    461000  -10517.464      44.521271     -10472.942      461            52879.314      0.0090000066 
    462000  -10515.409      45.194223     -10470.214      462            52990.43       0.0089996166 
    463000  -10517.242      43.369021     -10473.873      463            53101.586      0.0089963148 
    464000  -10515.347      44.52741      -10470.82       464            53214.747      0.0088369468 
    465000  -10516.327      42.991319     -10473.335      465            53328.909      0.0087595078 
    466000  -10517.771      45.35709      -10472.414      466            53444.016      0.0086875457 
    467000  -10517.92       44.677342     -10473.243      467            53559.449      0.0086630502 
    468000  -10516.685      44.849861     -10471.835      468            53676.824      0.0085196852 
    469000  -10519.154      44.462969     -10474.691      469            53795.509      0.0084256903 
    470000  -10518.279      45.538383     -10472.741      470            53914.934      0.0083734966 
    471000  -10520.37       45.607243     -10474.763      471            54035.514      0.008293216  
    472000  -10517.542      44.708367     -10472.834      472            54155.43       0.0083391418 
    473000  -10517.752      44.348475     -10473.404      473            54277.633      0.0081831105 
    474000  -10515.719      46.563669     -10469.155      474            54399.157      0.0082288542 
    475000  -10517.751      44.554892     -10473.196      475            54521.927      0.0081453382 
    476000  -10518.114      43.252029     -10474.862      476            54644.423      0.0081634879 
    477000  -10517.67       45.96216      -10471.708      477            54765.586      0.0082533363 
    478000  -10516.803      43.125797     -10473.677      478            54888.396      0.0081426607 
    479000  -10518.227      46.635153     -10471.592      479            55010.606      0.0081826502 
    480000  -10518.015      43.498497     -10474.516      480            55133.964      0.0081065259 
    481000  -10518.47       45.938031     -10472.532      481            55258.158      0.0080518887 
    482000  -10517.69       42.38927      -10475.301      482            55383.002      0.0080099633 
    483000  -10517.329      44.378598     -10472.95       483            55508.953      0.0079396312 
    484000  -10518.214      44.406106     -10473.808      484            55635.393      0.0079088594 
    485000  -10518.328      45.448545     -10472.88       485            55761.354      0.0079389871 
    486000  -10518.021      44.469952     -10473.552      486            55887.34       0.0079374196 
    487000  -10517.023      44.711336     -10472.312      487            56013.25       0.007942177  
    488000  -10518.826      43.764466     -10475.061      488            56138.677      0.0079727287 
    489000  -10516.676      44.835755     -10471.841      489            56263.06       0.0080396832 
    490000  -10518.337      40.892438     -10477.445      490            56385.645      0.0081576239 
    491000  -10516.657      43.975148     -10472.682      491            56506.212      0.0082941135 
    492000  -10518.342      42.322294     -10476.02       492            56626.472      0.0083153583 
    493000  -10517.006      43.805555     -10473.2        493            56745.83       0.008378118  
    494000  -10516.669      44.24144      -10472.428      494            56866.178      0.008309246  
    495000  -10517.254      44.355798     -10472.898      495            56987.169      0.0082650936 
    496000  -10517.902      45.297545     -10472.604      496            57110.181      0.0081292624 
    497000  -10518.882      46.32086      -10472.561      497            57232.287      0.0081896522 
    498000  -10517.072      44.876219     -10472.196      498            57355.111      0.0081416936 
    499000  -10517.755      43.765736     -10473.989      499            57478.846      0.0080817915 
    500000  -10518.517      46.794257     -10471.723      500            57602.747      0.0080709406 
    501000  -10520.004      45.131123     -10474.873      501            57726.56       0.0080767541 
    502000  -10517.926      43.824878     -10474.101      502            57848.469      0.0082028077 
    503000  -10518.205      45.02684      -10473.178      503            57968.331      0.0083428972 
    504000  -10514.681      44.846154     -10469.835      504            58088.442      0.0083256557 
    505000  -10518.251      45.139453     -10473.112      505            58208.522      0.0083278071 
    506000  -10515.284      45.057185     -10470.227      506            58328.588      0.0083287318 
    507000  -10517.583      43.92186      -10473.661      507            58450.691      0.0081898297 
    508000  -10518.901      46.401987     -10472.499      508            58571.754      0.0082601206 
    509000  -10518.384      43.934684     -10474.449      509            58694.401      0.008153473  
    510000  -10516.569      44.929128     -10471.639      510            58814.238      0.0083447229 
    511000  -10518.411      43.053182     -10475.358      511            58933.518      0.0083836025 
    512000  -10516.715      43.293512     -10473.421      512            59051.385      0.0084841593 
    513000  -10517.264      46.83041      -10470.434      513            59167.813      0.0085889872 
    514000  -10517.478      43.095134     -10474.383      514            59284.119      0.0085980437 
    515000  -10518.622      44.389632     -10474.233      515            59399.852      0.0086405479 
    516000  -10517.344      45.12222      -10472.222      516            59512.469      0.0088796504 
    517000  -10518.45       43.465655     -10474.984      517            59623.426      0.0090125128 
    518000  -10516.412      44.681468     -10471.731      518            59732.724      0.0091493269 
    519000  -10518.826      45.347504     -10473.479      519            59842.344      0.0091224198 
    520000  -10514.861      44.714309     -10470.146      520            59951.464      0.0091641489 
    521000  -10517.884      43.840251     -10474.044      521            60061.548      0.0090839907 
    522000  -10517.556      45.36677      -10472.19       522            60170.383      0.0091882133 
    523000  -10518.204      45.368567     -10472.835      523            60278.73       0.0092296157 
    524000  -10516.745      43.372261     -10473.373      524            60387.758      0.0091719971 
    525000  -10516.882      43.475014     -10473.407      525            60496.086      0.0092311618 
    526000  -10515.202      44.105172     -10471.097      526            60606.28       0.0090749567 
    527000  -10517.361      43.844918     -10473.516      527            60715.984      0.0091153828 
    528000  -10516.242      45.625771     -10470.617      528            60825.308      0.0091471987 
    529000  -10519.483      44.969308     -10474.513      529            60934.67       0.0091438647 
    530000  -10515.386      44.059523     -10471.327      530            61045.994      0.0089828194 
    531000  -10518.709      45.131933     -10473.577      531            61159.07       0.0088436422 
    532000  -10518.765      44.06648      -10474.699      532            61273.007      0.0087767846 
    533000  -10518.408      45.6799       -10472.729      533            61387.231      0.0087547125 
    534000  -10520.917      45.027075     -10475.89       534            61501.808      0.0087277019 
    535000  -10518.948      46.877015     -10472.071      535            61616.44       0.0087236085 
    536000  -10518.255      44.275166     -10473.979      536            61731.703      0.0086758097 
    537000  -10515.138      44.779694     -10470.359      537            61846.63       0.0087011706 
    538000  -10517.937      44.303201     -10473.634      538            61960.625      0.0087723162 
    539000  -10519.654      45.772817     -10473.882      539            62073.633      0.008848917  
    540000  -10517.321      44.102428     -10473.218      540            62185.406      0.008946708  
    541000  -10519.813      43.833546     -10475.98       541            62298.706      0.0088261764 
    542000  -10517.769      43.326574     -10474.442      542            62409.881      0.0089948188 
    543000  -10517.361      43.590537     -10473.771      543            62521.373      0.0089692607 
    544000  -10517.148      45.70227      -10471.446      544            62631.896      0.0090478778 
    545000  -10517.841      43.949115     -10473.892      545            62742.168      0.0090684855 
    546000  -10517.475      42.538786     -10474.936      546            62852.296      0.0090803262 
    547000  -10518.356      45.613498     -10472.743      547            62962.022      0.0091136074 
    548000  -10516.737      45.825641     -10470.911      548            63071.72       0.0091159152 
    549000  -10517.448      43.810212     -10473.638      549            63180.544      0.0091891604 
    550000  -10518.202      45.231264     -10472.971      550            63289.656      0.0091648884 
    551000  -10517.961      43.222242     -10474.739      551            63398.567      0.009181841  
    552000  -10515.677      43.759975     -10471.917      552            63507.454      0.0091837976 
    553000  -10518.654      43.729242     -10474.925      553            63616.893      0.0091375075 
    554000  -10516.3        44.086876     -10472.213      554            63725.858      0.0091772796 
    555000  -10518.645      43.793239     -10474.852      555            63835.635      0.0091093489 
    556000  -10517.815      45.018241     -10472.797      556            63945.689      0.0090864541 
    557000  -10516.763      46.824888     -10469.939      557            64057.616      0.0089344058 
    558000  -10517.287      43.380741     -10473.906      558            64170.319      0.0088728456 
    559000  -10517.387      44.563596     -10472.823      559            64284.399      0.008765847  
    560000  -10517.841      44.989819     -10472.851      560            64398.499      0.0087642271 
    561000  -10514.854      45.71337      -10469.14       561            64512.955      0.0087369594 
    562000  -10517.449      44.600373     -10472.849      562            64628.007      0.0086917023 
    563000  -10515.605      44.454555     -10471.151      563            64741.281      0.008828161  
    564000  -10516.74       45.558412     -10471.182      564            64855.001      0.0087935823 
    565000  -10516.25       43.655359     -10472.595      565            64967.905      0.0088570478 
    566000  -10516.194      43.766791     -10472.428      566            65078.144      0.0090712141 
    567000  -10518.9        44.114732     -10474.785      567            65188.063      0.0090975843 
    568000  -10516.873      45.060984     -10471.812      568            65296.63       0.0092108927 
    569000  -10518.348      43.50421      -10474.844      569            65406.089      0.0091358871 
    570000  -10517.209      45.42039      -10471.789      570            65515.79       0.0091156317 
    571000  -10516.197      44.834202     -10471.363      571            65625.79       0.0090909066 
    572000  -10518.771      44.380397     -10474.391      572            65735.08       0.0091499914 
    573000  -10517.058      45.21018      -10471.848      573            65844.582      0.0091322955 
    574000  -10519.375      45.675611     -10473.7        574            65954.05       0.0091350356 
    575000  -10517.249      46.12606      -10471.123      575            66065.519      0.0089711406 
    576000  -10518.348      44.593424     -10473.755      576            66175.726      0.0090737879 
    577000  -10515.499      45.483658     -10470.015      577            66287.152      0.0089746056 
    578000  -10516.362      43.095564     -10473.267      578            66398.358      0.0089923081 
    579000  -10517.2        46.389209     -10470.811      579            66510.338      0.0089301305 
    580000  -10519.896      45.43429      -10474.462      580            66623.308      0.0088519742 
    581000  -10516.344      43.61991      -10472.724      581            66736.665      0.0088216601 
    582000  -10518.288      45.944338     -10472.344      582            66851.063      0.0087414216 
    583000  -10519.201      44.494932     -10474.706      583            66965.595      0.0087311649 
    584000  -10517.491      44.740851     -10472.75       584            67079.189      0.0088033002 
    585000  -10518.408      48.045821     -10470.362      585            67193.83       0.0087228306 
    586000  -10518.558      45.0139       -10473.545      586            67305.831      0.0089285629 
    587000  -10518.125      47.831632     -10470.293      587            67418.09       0.0089079066 
    588000  -10516.882      43.299838     -10473.583      588            67528.089      0.0090910228 
    589000  -10516.546      45.639901     -10470.906      589            67637.133      0.0091705822 
    590000  -10517.734      44.376144     -10473.358      590            67746.312      0.0091592687 
    591000  -10517.006      45.677577     -10471.328      591            67856.581      0.0090687812 
    592000  -10519.091      43.917996     -10475.173      592            67967.108      0.009047579  
    593000  -10516.963      43.864418     -10473.098      593            68076.993      0.0091003825 
    594000  -10517.48       45.595239     -10471.884      594            68186.672      0.0091174968 
    595000  -10517.94       44.165293     -10473.775      595            68296.744      0.0090849983 
    596000  -10517.695      46.108027     -10471.587      596            68407.305      0.0090447699 
    597000  -10518.816      43.242518     -10475.573      597            68517.836      0.0090472334 
    598000  -10518.807      46.176665     -10472.63       598            68627.855      0.0090893563 
    599000  -10518.298      43.165459     -10475.133      599            68738.523      0.009036004  
    600000  -10518.36       45.796922     -10472.563      600            68848.789      0.0090689905 
    601000  -10517.175      44.613296     -10472.561      601            68960.017      0.0089905223 
    602000  -10517.928      44.416675     -10473.511      602            69074.017      0.0087719824 
    603000  -10516.35       46.239068     -10470.111      603            69187.745      0.0087928553 
    604000  -10518.426      45.049827     -10473.376      604            69304.913      0.0085347678 
    605000  -10516.931      46.647313     -10470.284      605            69421.65       0.0085662558 
    606000  -10516.946      44.05372      -10472.893      606            69539.141      0.0085113151 
    607000  -10518.303      46.48602      -10471.817      607            69656.567      0.0085160058 
    608000  -10516.818      45.416865     -10471.401      608            69770.615      0.0087681987 
    609000  -10518.224      44.112853     -10474.111      609            69883.881      0.0088287907 
    610000  -10516.277      45.28981      -10470.987      610            69994.627      0.0090296525 
    611000  -10517.262      42.703892     -10474.559      611            70105.353      0.0090313024 
    612000  -10515.961      45.871836     -10470.089      612            70216.398      0.0090053527 
    613000  -10517.202      43.599012     -10473.603      613            70325.859      0.0091357206 
    614000  -10516.623      44.584769     -10472.038      614            70435.134      0.0091512265 
    615000  -10517.013      43.862246     -10473.15       615            70544.515      0.0091423158 
    616000  -10516.495      46.351832     -10470.143      616            70654.283      0.0091101601 
    617000  -10517.81       44.264937     -10473.545      617            70764.086      0.0091071687 
    618000  -10515.524      45.056502     -10470.467      618            70873.44       0.0091446865 
    619000  -10518.281      44.471083     -10473.81       619            70982.024      0.0092093855 
    620000  -10517.633      47.605056     -10470.028      620            71090.618      0.0092086718 
    621000  -10517.116      43.42611      -10473.69       621            71199.363      0.0091958367 
    622000  -10515.932      45.366687     -10470.566      622            71308.482      0.0091642637 
    623000  -10517.341      44.177711     -10473.163      623            71417.889      0.0091401736 
    624000  -10515.879      44.859058     -10471.02       624            71527.103      0.0091563725 
    625000  -10517.805      46.109633     -10471.696      625            71636.302      0.0091576109 
    626000  -10517.477      44.044181     -10473.433      626            71746.024      0.0091139115 
    627000  -10516.737      41.963339     -10474.773      627            71856.467      0.0090544265 
    628000  -10518.165      46.254084     -10471.911      628            71968.406      0.0089334918 
    629000  -10518.987      44.396253     -10474.59       629            72081.81       0.0088180249 
    630000  -10517.47       43.793924     -10473.676      630            72194.869      0.0088448991 
    631000  -10515.796      45.587215     -10470.209      631            72307.861      0.0088501628 
    632000  -10517.66       44.22145      -10473.439      632            72421.547      0.0087961944 
    633000  -10517.362      45.035037     -10472.327      633            72532.718      0.0089951279 
    634000  -10518.072      43.61904      -10474.453      634            72643.939      0.0089911082 
    635000  -10515.072      44.09383      -10470.979      635            72753.843      0.0090988323 
    636000  -10517.171      44.08284      -10473.088      636            72863.885      0.009087514  
    637000  -10520.427      44.69989      -10475.727      637            72972.91       0.0091721673 
    638000  -10517.09       44.982895     -10472.107      638            73082.19       0.0091508323 
    639000  -10517.556      43.798262     -10473.758      639            73192.029      0.0091041967 
    640000  -10516.894      45.096614     -10471.798      640            73301.71       0.0091173688 
    641000  -10517.736      44.188607     -10473.547      641            73410.812      0.009165696  
    642000  -10517.199      45.767987     -10471.431      642            73520.197      0.0091420814 
    643000  -10518.986      44.864485     -10474.122      643            73629.782      0.0091252882 
    644000  -10517.284      44.929185     -10472.354      644            73739.703      0.0090974964 
    645000  -10517.407      44.631204     -10472.775      645            73849.863      0.0090776533 
    646000  -10518.107      47.289065     -10470.818      646            73960.117      0.0090700221 
    647000  -10517.283      42.879668     -10474.403      647            74069.634      0.0091309907 
    648000  -10516.895      44.713384     -10472.182      648            74179.216      0.0091255854 
    649000  -10517.394      43.697359     -10473.696      649            74288.694      0.0091342671 
    650000  -10516.697      45.45477      -10471.242      650            74399.09       0.0090582722 
    651000  -10518.017      43.695316     -10474.322      651            74509.681      0.0090423065 
    652000  -10518.659      45.51634      -10473.143      652            74622.915      0.0088312743 
    653000  -10517.005      44.60688      -10472.398      653            74736.928      0.0087709351 
    654000  -10514.894      45.643878     -10469.25       654            74850.021      0.0088422564 
    655000  -10517.961      45.725214     -10472.236      655            74966.677      0.0085722054 
    656000  -10516.904      45.765364     -10471.139      656            75083.549      0.0085563909 
    657000  -10517.654      46.189692     -10471.464      657            75199.347      0.0086357561 
    658000  -10516.604      44.200241     -10472.404      658            75315.795      0.0085875092 
    659000  -10516.143      42.995091     -10473.148      659            75432.418      0.0085746289 
    660000  -10516.032      44.974433     -10471.058      660            75549.18       0.0085644366 
    661000  -10516.157      41.96381      -10474.193      661            75666.301      0.0085381423 
    662000  -10516.215      43.942641     -10472.273      662            75784.074      0.0084909484 
    663000  -10517.686      43.929612     -10473.757      663            75902.473      0.0084460153 
    664000  -10516.4        47.898429     -10468.501      664            76023.482      0.0082638204 
    665000  -10518.731      45.089897     -10473.641      665            76144.736      0.0082471531 
    666000  -10517.73       45.976145     -10471.753      666            76266.58       0.0082072549 
    667000  -10519.81       45.610064     -10474.2        667            76388.761      0.0081845842 
    668000  -10517.73       44.629384     -10473.101      668            76510.013      0.0082472662 
    669000  -10517.16       47.175568     -10469.984      669            76633.126      0.0081226466 
    670000  -10516.894      43.453604     -10473.441      670            76756.144      0.0081288574 
    671000  -10515.202      46.92147      -10468.28       671            76880.173      0.0080626121 
    672000  -10517.801      44.468737     -10473.332      672            77003.444      0.0081122048 
    673000  -10514.627      43.208656     -10471.418      673            77124.708      0.0082464688 
    674000  -10517.183      41.575532     -10475.608      674            77246.001      0.0082444981 
    675000  -10516.921      45.03812      -10471.883      675            77367.377      0.0082389021 
    676000  -10518.167      43.681342     -10474.486      676            77489.665      0.0081773805 
    677000  -10516.199      45.558336     -10470.641      677            77610.244      0.0082933594 
    678000  -10516.436      45.150054     -10471.286      678            77730.448      0.0083192033 
    679000  -10518.945      44.433861     -10474.511      679            77850.932      0.0082998479 
    680000  -10516.622      42.917454     -10473.704      680            77971.428      0.008299039  
    681000  -10516.052      44.081953     -10471.97       681            78093.903      0.0081648727 
    682000  -10518.163      44.782829     -10473.38       682            78218.302      0.008038676  
    683000  -10515.548      45.519917     -10470.028      683            78342.204      0.0080709274 
    684000  -10517.259      44.817217     -10472.442      684            78465.303      0.0081234853 
    685000  -10515.821      44.860624     -10470.96       685            78589.341      0.0080621044 
    686000  -10518.857      42.711441     -10476.145      686            78713.204      0.008073403  
    687000  -10517.392      45.900637     -10471.491      687            78837.401      0.0080517388 
    688000  -10517.534      44.234339     -10473.3        688            78961.298      0.0080711843 
    689000  -10518.448      47.464772     -10470.983      689            79085.077      0.0080789416 
    690000  -10515.937      42.990953     -10472.946      690            79208.97       0.0080714511 
    691000  -10516.95       44.336446     -10472.614      691            79334.465      0.0079684423 
    692000  -10516.046      44.294674     -10471.752      692            79459.313      0.0080097731 
    693000  -10518.196      44.086871     -10474.109      693            79584.087      0.0080145095 
    694000  -10517.372      44.161345     -10473.211      694            79708.89       0.0080126181 
    695000  -10517.854      45.102483     -10472.751      695            79833.344      0.0080350732 
    696000  -10517.777      45.689435     -10472.088      696            79957.077      0.0080819053 
    697000  -10516.996      44.676349     -10472.319      697            80080.71       0.0080884836 
    698000  -10517.965      44.029111     -10473.936      698            80202.55       0.008207453  
    699000  -10515.285      44.568985     -10470.716      699            80323.093      0.0082958433 
    700000  -10515.923      44.285336     -10471.638      700            80444.078      0.0082654689 
    701000  -10518.323      45.898471     -10472.425      701            80563.059      0.0084047261 
    702000  -10516.853      44.223167     -10472.63       702            80682.66       0.0083610948 
    703000  -10517.245      42.942452     -10474.302      703            80802.857      0.0083196726 
    704000  -10519.243      44.058752     -10475.184      704            80924.451      0.008224114  
    705000  -10517.369      45.458593     -10471.91       705            81049.385      0.0080041899 
    706000  -10518.697      43.703383     -10474.993      706            81173.385      0.0080645603 
    707000  -10516.266      43.251916     -10473.014      707            81298.356      0.0080018648 
    708000  -10518.183      44.516035     -10473.667      708            81423.995      0.0079593065 
    709000  -10515.491      46.044445     -10469.447      709            81550.336      0.007915097  
    710000  -10517.46       43.95035      -10473.51       710            81675.519      0.0079882505 
    711000  -10516.452      44.85546      -10471.596      711            81801.896      0.0079128733 
    712000  -10518.704      44.957139     -10473.747      712            81926.726      0.0080108886 
    713000  -10516.643      44.845689     -10471.797      713            82050.03       0.0081100569 
    714000  -10519.468      44.337229     -10475.131      714            82171.79       0.0082128564 
    715000  -10517.714      46.073778     -10471.64       715            82293.343      0.0082268537 
    716000  -10518.428      44.918245     -10473.51       716            82412.675      0.0083799742 
    717000  -10516.92       46.689922     -10470.23       717            82530.227      0.0085068849 
    718000  -10517.665      44.917728     -10472.748      718            82645.733      0.0086575318 
    719000  -10517.598      43.849736     -10473.748      719            82761.057      0.0086712829 
    720000  -10517.211      46.701284     -10470.51       720            82875.545      0.0087345274 
    721000  -10518.728      44.360331     -10474.367      721            82988.988      0.0088149832 
    722000  -10516.814      44.992766     -10471.821      722            83100.631      0.0089571021 
    723000  -10515.737      45.820791     -10469.916      723            83211.985      0.0089803637 
    724000  -10517.405      44.209538     -10473.195      724            83323.89       0.0089361461 
    725000  -10518.76       45.326962     -10473.433      725            83437.811      0.0087780716 
    726000  -10517.69       46.493249     -10471.197      726            83551.463      0.0087987748 
    727000  -10517.262      43.645259     -10473.617      727            83665.394      0.0087771906 
    728000  -10516.45       44.370251     -10472.08       728            83780.084      0.0087191965 
    729000  -10518.591      43.205979     -10475.385      729            83894.735      0.0087221466 
    730000  -10517.677      43.185474     -10474.492      730            84008.947      0.008755607  
    731000  -10516.88       45.478237     -10471.401      731            84122.001      0.0088453023 
    732000  -10516.772      44.265786     -10472.506      732            84234.351      0.0089007658 
    733000  -10516.171      42.18693      -10473.984      733            84344.321      0.0090934126 
    734000  -10517.25       46.070201     -10471.18       734            84453.959      0.0091209368 
    735000  -10518.971      45.012863     -10473.958      735            84563.927      0.0090935325 
    736000  -10516.954      44.825984     -10472.128      736            84674.239      0.0090652012 
    737000  -10518.042      44.386134     -10473.656      737            84783.189      0.0091785241 
    738000  -10516.741      44.250377     -10472.49       738            84892.27       0.0091675099 
    739000  -10517.526      46.387631     -10471.139      739            85001.528      0.0091526731 
    740000  -10517.897      44.55747      -10473.34       740            85110.365      0.009187982  
    741000  -10517.288      47.228559     -10470.06       741            85220.386      0.0090891958 
    742000  -10517.803      45.304251     -10472.499      742            85329.633      0.0091535941 
    743000  -10519.655      43.314226     -10476.34       743            85438.843      0.0091566409 
    744000  -10518.523      45.937945     -10472.585      744            85548.474      0.0091215198 
    745000  -10516.771      45.592976     -10471.178      745            85659.25       0.009027197  
    746000  -10517.05       43.813801     -10473.236      746            85770.964      0.0089514826 
    747000  -10516.332      44.942515     -10471.389      747            85884.934      0.0087742474 
[...]
   4888000  -10518.066      46.647809     -10471.418      4888           569229.32      0.0081333931 
   4889000  -10519.57       44.493811     -10475.076      4889           569349.28      0.0083358733 
   4890000  -10517.139      46.660928     -10470.478      4890           569471.55      0.0081792257 
   4891000  -10521.274      44.813266     -10476.461      4891           569592.22      0.0082870228 
   4892000  -10518.844      45.254981     -10473.589      4892           569709.23      0.0085457213 
   4893000  -10520.527      41.250654     -10479.276      4893           569826.79      0.0085063938 
   4894000  -10517.781      43.85172      -10473.929      4894           569943.23      0.0085884632 
   4895000  -10519.148      44.578237     -10474.57       4895           570059.57      0.008595476  
   4896000  -10517.041      44.878252     -10472.162      4896           570173.89      0.0087471684 
   4897000  -10519.917      44.924916     -10474.992      4897           570286.54      0.0088769124 
   4898000  -10518.131      46.310315     -10471.821      4898           570399.39      0.0088611737 
   4899000  -10519.113      44.24532      -10474.868      4899           570511.39      0.0089287427 
   4900000  -10518.622      44.058378     -10474.564      4900           570626.01      0.0087247754 
   4901000  -10517.179      45.051744     -10472.127      4901           570736.43      0.0090564727 
   4902000  -10519.578      44.38491      -10475.193      4902           570846.09      0.0091191468 
   4903000  -10517.383      45.83135      -10471.552      4903           570955.27      0.0091588201 
   4904000  -10519.608      44.83117      -10474.776      4904           571063.65      0.0092264581 
   4905000  -10518.706      44.978964     -10473.727      4905           571173.19      0.0091291564 
   4906000  -10519.458      45.212978     -10474.245      4906           571281.48      0.0092349151 
   4907000  -10519.503      45.527499     -10473.976      4907           571389.8       0.0092315981 
   4908000  -10518.507      44.253789     -10474.253      4908           571498         0.0092424595 
   4909000  -10519.975      43.159968     -10476.815      4909           571606.08      0.0092525184 
   4910000  -10518.44       44.362767     -10474.077      4910           571714.35      0.0092363111 
   4911000  -10520.262      43.816548     -10476.445      4911           571823.01      0.0092029785 
   4912000  -10518.985      44.642721     -10474.342      4912           571931.22      0.00924111   
   4913000  -10520.178      45.546147     -10474.632      4913           572039.71      0.0092169038 
   4914000  -10520.183      41.718326     -10478.465      4914           572148.39      0.0092013967 
   4915000  -10518.742      45.567758     -10473.174      4915           572256.71      0.0092321129 
   4916000  -10518.089      43.995339     -10474.093      4916           572365.36      0.0092039512 
   4917000  -10519.551      43.714707     -10475.837      4917           572474.01      0.009203669  
   4918000  -10518.071      44.735886     -10473.335      4918           572582.55      0.0092133021 
   4919000  -10519.455      44.299921     -10475.155      4919           572690.83      0.0092352734 
   4920000  -10520.726      45.147148     -10475.579      4920           572798.97      0.0092477357 
   4921000  -10519.679      44.786818     -10474.892      4921           572907         0.0092562525 
   4922000  -10517.188      44.446801     -10472.741      4922           573016.2       0.0091578333 
   4923000  -10519.238      42.545389     -10476.693      4923           573124.19      0.0092600948 
   4924000  -10518.825      45.505041     -10473.32       4924           573232.11      0.0092655283 
   4925000  -10520.263      44.500184     -10475.763      4925           573340.69      0.009210542  
   4926000  -10520.533      46.288785     -10474.245      4926           573448.55      0.0092711231 
   4927000  -10520.169      43.220885     -10476.949      4927           573556.38      0.0092736952 
   4928000  -10518.489      45.388537     -10473.101      4928           573664.73      0.0092289516 
   4929000  -10518.573      43.383665     -10475.189      4929           573772.79      0.0092545724 
   4930000  -10520.076      45.193195     -10474.883      4930           573881.03      0.0092382076 
   4931000  -10520.696      44.031046     -10476.664      4931           573988.95      0.0092664486 
   4932000  -10518.578      43.182232     -10475.396      4932           574097.24      0.009234533  
   4933000  -10520.247      44.925782     -10475.321      4933           574205.9       0.0092034433 
   4934000  -10521.557      43.617662     -10477.939      4934           574314.37      0.0092190874 
   4935000  -10518.414      43.975834     -10474.439      4935           574422.65      0.0092352424 
   4936000  -10521.621      44.363638     -10477.258      4936           574530.75      0.0092502844 
   4937000  -10519.993      45.315519     -10474.677      4937           574639.24      0.0092178987 
   4938000  -10521.175      44.817168     -10476.358      4938           574747.52      0.0092349642 
   4939000  -10521.046      45.161159     -10475.885      4939           574856.3       0.0091930504 
   4940000  -10517.291      43.020978     -10474.27       4940           574964.22      0.0092656172 
   4941000  -10519.584      44.070575     -10475.514      4941           575072.29      0.0092539893 
   4942000  -10518.438      45.500249     -10472.938      4942           575180.37      0.009252377  
   4943000  -10519.211      44.466423     -10474.745      4943           575288.49      0.0092488903 
   4944000  -10519.122      43.814824     -10475.307      4944           575397.41      0.0091805363 
   4945000  -10519.143      44.54624      -10474.596      4945           575505.39      0.0092611151 
   4946000  -10519.063      43.505873     -10475.557      4946           575613.26      0.0092707126 
   4947000  -10518.234      45.583041     -10472.651      4947           575720.96      0.0092852639 
   4948000  -10522.082      45.705535     -10476.376      4948           575829.01      0.0092548133 
   4949000  -10518.931      45.897528     -10473.034      4949           575937.11      0.0092508056 
   4950000  -10519.496      45.342297     -10474.153      4950           576046.08      0.009176815  
   4951000  -10519.534      43.666734     -10475.867      4951           576154.47      0.009225576  
   4952000  -10517.838      44.001206     -10473.837      4952           576262.87      0.0092251906 
   4953000  -10520.53       44.161659     -10476.368      4953           576371.36      0.0092176    
   4954000  -10519.258      44.53147      -10474.726      4954           576479.76      0.0092252218 
   4955000  -10520.18       43.316375     -10476.863      4955           576589         0.0091535354 
   4956000  -10521.155      45.727541     -10475.427      4956           576697.25      0.0092385244 
   4957000  -10519.589      43.420387     -10476.168      4957           576805.4       0.0092459287 
   4958000  -10518.389      45.876629     -10472.512      4958           576914.49      0.009166516  
   4959000  -10519.675      42.831169     -10476.843      4959           577023.03      0.0092131343 
   4960000  -10518.416      44.814527     -10473.601      4960           577131.61      0.0092105702 
   4961000  -10520.772      44.513771     -10476.259      4961           577240.6       0.0091749911 
   4962000  -10520.02       44.878268     -10475.141      4962           577349.97      0.0091432418 
   4963000  -10518.834      44.333302     -10474.501      4963           577461.34      0.0089788518 
   4964000  -10518.834      43.870854     -10474.964      4964           577572.74      0.0089764664 
   4965000  -10517.19       42.50126      -10474.689      4965           577684.88      0.0089177567 
   4966000  -10520.677      43.864989     -10476.812      4966           577797.61      0.0088704423 
   4967000  -10521.024      45.81052      -10475.214      4967           577912.81      0.0086805268 
   4968000  -10519.215      46.273407     -10472.941      4968           578029.93      0.0085387241 
   4969000  -10518.93       43.342401     -10475.588      4969           578148.92      0.0084039446 
   4970000  -10519.446      45.154814     -10474.291      4970           578267.9       0.0084044473 
   4971000  -10518.943      42.246241     -10476.697      4971           578387.79      0.008341131  
   4972000  -10519.17       43.263548     -10475.906      4972           578509.06      0.0082461311 
   4973000  -10518.697      44.821164     -10473.876      4973           578631.05      0.0081972352 
   4974000  -10521.58       45.104683     -10476.475      4974           578752.98      0.0082016049 
   4975000  -10518.142      45.595363     -10472.546      4975           578876.77      0.0080781558 
   4976000  -10522.304      43.917306     -10478.386      4976           579001.01      0.0080488208 
   4977000  -10519.598      45.753659     -10473.845      4977           579123.16      0.0081867067 
   4978000  -10521.071      43.231882     -10477.839      4978           579246.5       0.0081074398 
   4979000  -10517.86       44.225759     -10473.634      4979           579369.15      0.0081538961 
   4980000  -10516.64       45.42062      -10471.219      4980           579491.67      0.0081616854 
   4981000  -10518.722      43.757563     -10474.964      4981           579615.31      0.0080881617 
   4982000  -10520.082      45.22348      -10474.859      4982           579740.09      0.0080138019 
   4983000  -10520.995      43.636835     -10477.358      4983           579864.78      0.0080198539 
   4984000  -10520.453      46.756054     -10473.697      4984           579988.74      0.0080671173 
   4985000  -10519.267      47.735794     -10471.532      4985           580111.36      0.0081554044 
   4986000  -10520.044      45.464513     -10474.579      4986           580232.65      0.0082444748 
   4987000  -10518.264      43.74728      -10474.517      4987           580352.84      0.0083207227 
   4988000  -10517.215      44.186335     -10473.028      4988           580473.77      0.0082688524 
   4989000  -10519.573      43.291659     -10476.281      4989           580594.81      0.0082616747 
   4990000  -10517.895      44.039976     -10473.855      4990           580714.7       0.0083412559 
   4991000  -10520.482      43.987417     -10476.495      4991           580836.01      0.0082429811 
   4992000  -10516.239      43.244879     -10472.994      4992           580956.36      0.0083095999 
   4993000  -10518.725      46.246865     -10472.479      4993           581077.61      0.0082470116 
   4994000  -10519.728      44.369291     -10475.358      4994           581198.28      0.0082871611 
   4995000  -10518.746      46.776125     -10471.97       4995           581318.65      0.0083074367 
   4996000  -10520.749      43.795814     -10476.953      4996           581438.79      0.0083240205 
   4997000  -10518.44       45.901016     -10472.539      4997           581561.8       0.0081294059 
   4998000  -10519.629      45.534322     -10474.094      4998           581685.73      0.0080687895 
   4999000  -10517.323      45.047056     -10472.276      4999           581810.79      0.0079960818 
   5000000  -10518.214      44.058181     -10474.155      5000           581936.14      0.0079779377 
Loop time of 581936 on 16 procs for 5000000 steps with 1152 atoms

Performance: 0.742 ns/day, 32.330 hours/ns, 8.592 timesteps/s, 9.898 katom-step/s
99.2% CPU use with 16 MPI tasks x 1 OpenMP threads

MPI task timing breakdown:
Section |  min time  |  avg time  |  max time  |%varavg| %total
---------------------------------------------------------------
Pair    | 1.5825e+05 | 1.6453e+05 | 1.6933e+05 | 774.2 | 28.27
Neigh   | 1787.2     | 1909.8     | 1966       | 111.1 |  0.33
Comm    | 14452      | 17920      | 22345      |1975.1 |  3.08
Output  | 158.65     | 158.73     | 159.74     |   2.1 |  0.03
Modify  | 3.9481e+05 | 3.9737e+05 | 3.9929e+05 | 244.7 | 68.28
Other   |            | 47.3       |            |       |  0.01

Nlocal:             72 ave          90 max          56 min
Histogram: 2 0 1 1 7 3 0 0 0 2
Nghost:        889.375 ave         942 max         793 min
Histogram: 1 1 0 2 4 0 0 0 1 7
Neighs:              0 ave           0 max           0 min
Histogram: 16 0 0 0 0 0 0 0 0 0
FullNghs:       6952.5 ave        9393 max        4418 min
Histogram: 1 1 2 1 1 6 2 0 0 2

Total # of neighbors = 111240
Ave neighs/atom = 96.5625
Neighbor list builds = 10000000
Dangerous builds = 0

unfix temp

min_style cg
fix 0 all box/relax aniso 0 vmax 0.001
minimize 0 0 100000 100000
Per MPI rank memory allocation (min/avg/max) = 5.543 | 5.543 | 5.543 Mbytes
   Step         PotEng         KinEng         TotEng          Time           CPU           T/CPU     
   5000000  -10518.214      44.058181     -10474.155      5000           0              0            
   5001000  -10564.37       44.058181     -10520.312      5001           65.216097      0.015333637  
   5002000  -10564.427      44.058181     -10520.368      5002           138.01927      0.013735665  
   5003000  -10564.442      44.058181     -10520.384      5003           211.01904      0.013698673  
   5004000  -10564.457      44.058181     -10520.399      5004           288.58035      0.012893026  
   5005000  -10564.46       44.058181     -10520.401      5005           367.91411      0.012604974  
   5006000  -10564.46       44.058181     -10520.402      5006           446.50976      0.01272335   
   5007000  -10564.46       44.058181     -10520.402      5007           525.3107       0.012690204  
   5008000  -10564.46       44.058181     -10520.402      5008           604.81839      0.012577399  
   5009000  -10564.46       44.058181     -10520.402      5009           680.63671      0.013189425  
   5010000  -10564.46       44.058181     -10520.402      5010           755.76637      0.013310323  
   5011000  -10564.46       44.058181     -10520.402      5011           831.57251      0.013191543  
   5012000  -10564.46       44.058181     -10520.402      5012           907.60346      0.013152538  
   5013000  -10564.46       44.058181     -10520.402      5013           983.5104       0.013174026  
   5014000  -10564.46       44.058181     -10520.402      5014           1059.2989      0.013194611  
   5015000  -10564.46       44.058181     -10520.402      5015           1135.0904      0.013194097  
   5016000  -10564.46       44.058181     -10520.402      5016           1210.9075      0.013189636  
   5017000  -10564.46       44.058181     -10520.402      5017           1288.484       0.012890501  
   5018000  -10564.46       44.058181     -10520.402      5018           1367.6191      0.012636622  
   5019000  -10564.46       44.058181     -10520.402      5019           1446.7188      0.012642269  
   5020000  -10564.46       44.058181     -10520.402      5020           1525.7212      0.012657842  
   5021000  -10564.46       44.058181     -10520.402      5021           1604.8526      0.012637208  
   5022000  -10564.46       44.058181     -10520.402      5022           1683.9466      0.012643192  
   5023000  -10564.46       44.058181     -10520.402      5023           1763.2515      0.012609561  
   5024000  -10564.46       44.058181     -10520.402      5024           1842.2527      0.012658036  
   5025000  -10564.46       44.058181     -10520.402      5025           1918.577       0.013101972  
   5026000  -10564.46       44.058181     -10520.402      5026           1994.3838      0.013191433  
   5027000  -10564.46       44.058181     -10520.402      5027           2069.7384      0.013270601  
   5028000  -10564.46       44.058181     -10520.402      5028           2145.4419      0.013209412  
   5029000  -10564.46       44.058181     -10520.402      5029           2220.6339      0.013299291  
   5030000  -10564.46       44.058181     -10520.402      5030           2296.1513      0.01324199   
   5031000  -10564.46       44.058181     -10520.402      5031           2371.537       0.013265103  
   5032000  -10564.46       44.058181     -10520.402      5032           2447.6108      0.013145131  
   5033000  -10564.46       44.058181     -10520.402      5033           2522.8955      0.013282916  
   5034000  -10564.46       44.058181     -10520.402      5034           2598.0696      0.013302466  
   5035000  -10564.46       44.058181     -10520.402      5035           2673.2456      0.013302105  
   5036000  -10564.46       44.058181     -10520.402      5036           2748.1971      0.013341974  
   5037000  -10564.46       44.058181     -10520.402      5037           2823.0025      0.013368009  
   5038000  -10564.46       44.058181     -10520.402      5038           2897.7842      0.013372254  
   5039000  -10564.46       44.058181     -10520.402      5039           2971.8998      0.013492447  
   5040000  -10564.46       44.058181     -10520.402      5040           3045.7151      0.013547328  
   5041000  -10564.46       44.058181     -10520.402      5041           3119.3074      0.013588377  
   5042000  -10564.46       44.058181     -10520.402      5042           3192.8013      0.013606555  
   5043000  -10564.46       44.058181     -10520.402      5043           3267.5169      0.013384088  
   5044000  -10564.46       44.058181     -10520.402      5044           3343.5307      0.013155517  
   5045000  -10564.46       44.058181     -10520.402      5045           3419.186       0.013217848  
   5046000  -10564.46       44.058181     -10520.402      5046           3495.1513      0.013163904  
   5047000  -10564.46       44.058181     -10520.402      5047           3571.1363      0.01316049   
   5048000  -10564.46       44.058181     -10520.402      5048           3647.2025      0.013146433  
   5049000  -10564.46       44.058181     -10520.402      5049           3723.4114      0.013121834  
   5050000  -10564.46       44.058181     -10520.402      5050           3799.9445      0.013066236  
   5050187  -10564.46       44.058181     -10520.402      5050.187       3814.0221      0.013283554  
Loop time of 3814.02 on 16 procs for 50187 steps with 1152 atoms

99.2% CPU use with 16 MPI tasks x 1 OpenMP threads

Minimization stats:
  Stopping criterion = max force evaluations
  Energy initial, next-to-last, final = 
      -10518.213518564  -10564.4602081736  -10564.4602081736
  Force two-norm initial, final = 120.5035 1.0516028e-11
  Force max component initial, final = 78.401033 9.8584945e-12
  Final line search alpha, max atom move = 1 9.8584945e-12
  Iterations, force evaluations = 50187 100001

MPI task timing breakdown:
Section |  min time  |  avg time  |  max time  |%varavg| %total
---------------------------------------------------------------
Pair    | 2553.1     | 3111.8     | 3711       | 515.2 | 81.59
Neigh   | 0.00025761 | 0.00034299 | 0.00044296 |   0.0 |  0.00
Comm    | 9.897      | 422.84     | 908.71     |1452.5 | 11.09
Output  | 0.0083165  | 0.0089907  | 0.018442   |   2.6 |  0.00
Modify  | 0          | 0          | 0          |   0.0 |  0.00
Other   |            | 279.4      |            |       |  7.33

Nlocal:             72 ave          90 max          56 min
Histogram: 2 0 1 1 7 3 0 0 0 2
Nghost:          890.5 ave         942 max         797 min
Histogram: 1 1 0 2 3 1 0 0 1 7
Neighs:              0 ave           0 max           0 min
Histogram: 16 0 0 0 0 0 0 0 0 0
FullNghs:      6985.75 ave        9423 max        4441 min
Histogram: 1 1 2 1 1 6 2 0 0 2

Total # of neighbors = 111772
Ave neighs/atom = 97.024306
Neighbor list builds = 1
Dangerous builds = 0

write_data data.CSRO
System init for write_data ...

print "all done"
all done
Total wall time: 162:42:30
