LAMMPS data file via write_data, version 22 Dec 2022, timestep = 1050198

1152 atoms
5 atom types

0.0012596740489019774 14.778275576776284 xlo xhi
-0.0003751668461915389 15.676439564812723 ylo yhi
0.03845115310093959 68.2252980913818 zlo zhi

Masses

1 180.948
2 92.9064
3 50.9415
4 95.94
5 183.84

Atoms # atomic

1112 3 2.916263399915357 2.067515320406821 2.3197824541581253 4 2 1
513 3 0.48344688330809826 3.8391618706299977 2.3018924116202855 4 1 1
1108 3 0.4610148973708443 1.2213842882699626 2.3227368935882713 4 2 1
1024 3 1.6785837890828619 0.33746843061085674 0.2179667261287551 4 2 1
1025 3 1.6987905186250147 2.9483203115545176 0.21307910063594934 4 2 1
485 3 4.1630291527233805 3.8053633279622185 0.21269347075776626 3 1 1
1150 3 5.381099136151562 2.92841262041896 2.2983014899578866 3 2 1
1149 3 5.35771139948154 0.30276549550799037 2.2780246389041348 3 2 1
1148 3 4.145706007212417 1.1930687932275967 0.2071414585913927 3 2 1
1082 3 6.615709295822404 2.065212299066438 0.18770583434731397 3 2 1
1138 3 7.837186965003316 1.187055583591167 2.257278485329487 3 2 1
540 3 7.858970915069904 3.8289491561673525 2.2653585043747144 3 1 1
1140 3 9.09265442754821 2.9801497828389345 4.262776561927163 3 2 1
1143 3 10.323947190929854 2.0938053576849605 2.2623170849676564 3 2 1
1066 3 9.070723525211175 0.3342524680094285 0.17553148991616588 3 2 1
1139 3 9.068029456478017 0.29931559705977245 4.309893129070351 3 2 1
1142 3 9.087438489165196 2.9544820978993185 0.17812919231155885 3 2 1
528 3 11.559672459557826 3.8400435422247874 0.17932045426533447 3 1 1
1127 3 12.801476789669085 2.9871108128673742 2.28515636954931 3 2 1
1126 3 12.777751684724311 0.3515720156344326 2.2996798970248675 3 2 1
1049 3 14.009957482740964 2.0936590806596227 0.20626952860879405 3 2 1
1125 3 11.539137490857671 1.2236179736275106 0.19318945399146392 3 2 1
524 3 11.613193754506096 3.9162435032307816 4.3425659607797815 3 1 1
431 3 1.7106604958728782 5.561096091112297 0.20274775435862813 4 1 1
509 3 2.931648645743529 4.683954165784217 2.319705702555999 4 1 1
520 3 2.9312104674711614 7.298210415602775 2.3131363746959877 4 1 1
514 3 0.48874157492043274 6.453722247603571 2.2925397895437802 4 1 1
561 3 6.624697720679165 7.293401109902159 0.19182225228260272 3 1 1
556 3 5.391282824528267 5.5564604011117895 2.3041265921875986 3 1 1
486 3 4.1667857734457225 6.418055268743413 0.20906588048012856 3 1 1
464 3 6.63128401273983 4.68039455833274 0.19635749015347567 3 1 1
537 3 6.561147948344278 4.742768949659832 4.329336731117788 3 1 1
546 3 9.09802154977883 5.5713584143613835 0.17670193881800675 3 1 1
541 3 7.869721762846592 6.450265200695396 2.280032641991494 3 1 1
523 3 10.347293084687744 4.733828222499864 2.2599128852515755 3 1 1
547 3 10.339780543521645 7.339339215438643 2.2629669584904253 3 1 1
542 3 9.122708520944899 5.655654229735337 4.343283966731835 3 1 1
529 3 12.814613415733188 5.605707802885474 2.2668630095744158 3 1 1
427 3 14.027217619875726 4.706528486180429 0.18744325883846352 3 1 1
450 3 14.027409158090114 7.322084820365527 0.17999764396835422 3 1 1
444 3 11.56547541620223 6.454457679262039 0.17049540278820943 3 1 1
1110 3 1.6976103735776078 2.9645970480909103 4.430114593865849 4 2 1
1109 3 1.6890649528590371 0.3218917473518757 4.438492599800602 4 2 1
1111 3 2.8856481999856687 2.0719137028707 6.5649788673652845 4 2 1
1105 3 0.5391942183288575 1.1816849677181014 6.520470035107232 4 2 1
1152 3 0.5051446510839757 3.906621995704208 6.538851827861743 4 1 1
1151 3 6.567601307689775 2.0403543610955333 4.343671194007989 3 2 1
1145 3 4.113434418914998 1.1743728608706085 4.40607404053026 3 2 1
1146 3 5.254760034323586 0.2778834138846942 6.445751840853094 3 2 1
552 3 4.118177534585853 3.822459854432024 4.417861690165035 3 1 1
1147 3 5.216923931255233 2.954282084472584 6.468627750237928 3 2 1
525 3 11.603863059784231 6.525816471374943 4.357730153419721 3 1 1
1135 3 7.755260991601278 1.1561007619334522 6.370974963274834 3 2 1
1141 2 10.376290068422874 2.09474437554486 6.3932706100895595 3 2 1
510 3 14.055370143085433 4.761809750036406 4.38647322266223 3 1 1
1122 3 11.612668632685029 1.1938036467473108 4.320395601979886 3 2 1
1128 3 14.051663497278874 2.111511758016096 4.4060091928594955 3 2 1
1124 3 12.920917561644274 3.0540426665682685 6.4292586989424185 3 2 1
1123 3 12.904155509593995 0.27539436451529264 6.4603050078746636 3 2 1
515 3 1.6950238185050412 5.588632090994417 4.429996802223903 4 1 1
508 3 2.8587839805170865 4.740556389122053 6.577081216821471 4 1 1
517 3 2.8700342805255517 7.339389629269013 6.597250255489839 4 1 1
512 3 0.4696683748265195 6.509427210711631 6.566823632628021 4 1 1
558 3 6.602115432320962 7.336507578661726 4.402845338588008 3 1 1
553 3 4.126738693306244 6.448430200903646 4.434776463013659 3 1 1
554 3 5.250972326377555 5.656138166933411 6.502732964758769 3 1 1
538 2 7.786675656077353 3.9055616817378 6.405913475430464 3 1 1
539 3 7.805324773882844 6.612178608421754 6.471472400646574 3 1 1
544 3 10.375804642832422 7.436858654716918 6.4918253455805885 3 1 1
522 3 10.411411712233436 4.892158190321485 6.403946567446203 3 1 1
526 3 12.858072287609666 5.7116692338413655 6.4955168814331845 3 1 1
531 3 14.046440527552656 7.3608246289064905 4.398921206662342 3 1 1
592 3 2.760696642644506 2.096594553688243 11.018016101709044 4 2 0
586 3 0.6273897796127046 1.1973758180507164 11.089011841871233 4 2 0
591 3 1.7499201332753103 3.0332014242285643 8.787838738565423 4 2 0
590 3 1.7463976741708087 0.2564419403400207 8.785027679789387 4 2 0
636 2 5.126180839601471 3.044556994532087 11.027618611693644 3 2 0
57 3 3.9419309176727775 3.8985731533752075 8.731766917435943 3 1 0
635 2 5.183550607388124 0.18814500663829217 10.996502971180462 3 2 0
634 3 3.9621072938823914 1.158681906451708 8.708375976923557 3 2 0
622 2 7.77693657333065 1.1438091168255784 11.030880039714106 3 2 0
628 2 10.399890934848917 2.1126275666838743 11.026126952045802 3 2 0
627 2 9.074215941953586 3.0365747293338075 8.690021413334856 3 2 0
606 2 11.699885392222187 1.1645254542634182 8.676734377837052 3 2 0
610 2 14.206365296326819 2.1204329232704175 8.724086558797394 3 2 0
608 2 12.996130649708094 3.1013727056886786 11.061214867469232 3 2 0
607 2 13.0360944891075 0.22403625108352043 11.048739564111662 3 2 0
7 3 0.5737142799259971 3.9788662168608373 11.068032566973333 4 1 0
2 3 2.7764864912375486 4.830608396978967 11.060550930867173 4 1 0
15 3 2.7882199237249132 7.394547787316261 11.059826379740793 4 1 0
8 3 0.44498710630424765 6.561877222895423 11.058522414586914 4 1 0
13 3 1.6443884334618 5.667530637672755 8.796840759048415 4 1 0
38 2 6.405519347511015 4.873291639495817 8.714720264312689 3 1 0
58 3 3.9806219828419542 6.545426247454577 8.80079572202318 3 1 0
59 3 5.106846770925648 5.770263992672819 11.044890961920483 3 1 0
64 3 6.477369921044357 7.492140869626484 8.737331374175424 3 1 0
39 2 7.746149773325846 3.9790414490171373 11.028286808679615 3 1 0
40 2 7.736982279075822 6.71582586926055 11.037062978359076 3 1 0
18 2 10.413828592502057 4.977219006957059 11.030671723627428 3 1 0
47 3 10.402947788835297 7.580683490267163 11.043695935656663 3 1 0
45 2 9.101482906239132 5.823666714829842 8.670969505543944 3 1 0
23 2 11.698865922467304 4.027443603042489 8.664990678299052 3 1 0
30 3 14.04547590793147 7.420439401507044 8.780516381228205 3 1 0
24 3 11.666891082298491 6.693192511522353 8.736069940394085 3 1 0
25 3 12.916215187865323 5.830088261529677 11.037102298485378 3 1 0
6 3 14.139057921782872 4.899664146783818 8.755894147044035 3 1 0
588 3 1.6325227311874881 3.051831941534658 13.334223252562976 4 2 0
589 3 2.7692293751894126 2.0846395244649094 15.642047805762523 4 2 0
582 3 0.5896750158788356 1.2252413292097792 15.592069899853666 4 2 0
587 3 1.6259296949853979 0.25942701051919037 13.332147468686111 4 2 0
631 3 5.185278417191709 0.18997792652996598 15.68810711454407 3 2 0
630 2 3.942220155067179 1.178525720711209 13.368196004745581 3 2 0
637 2 6.472729135706155 2.0962930894525726 13.370260365744157 3 2 0
632 2 5.15568682120958 3.033358640770745 15.658543358714985 3 2 0
623 2 9.112385088840742 0.18105875392607074 13.373454080565908 3 2 0
618 2 7.765962762208087 1.1537319974448383 15.676511651055158 3 2 0
624 2 9.076856628387002 3.073109747274826 13.369442104377201 3 2 0
625 2 10.368743482480157 2.153224942894312 15.709439394948204 3 2 0
602 2 11.736118889772381 1.1967182873222038 13.359011710863324 3 2 0
609 3 14.234712132429793 2.1374860411137164 13.340770264782968 3 2 0
604 2 12.963483918088391 3.1038296673143897 15.66904195051159 3 2 0
603 2 13.003395158887992 0.24775218181327516 15.646914568702506 3 2 0
4 3 0.5441627842324677 3.9593777576046625 15.598746739113867 4 1 0
5 3 0.45457652919051617 6.544709283670815 15.599512236503983 4 1 0
9 3 1.6072523201583964 5.693854273356808 13.333787246787416 4 1 0
1 3 2.7926752025830264 4.8148769668995755 15.590764867102873 4 1 0
11 3 2.8353504030777392 7.367592327010798 15.577346496021839 4 1 0
53 3 3.8860235608822116 3.97037266378012 13.342710429304983 3 1 0
54 3 3.955934540473801 6.560022377805963 13.323564783392118 3 1 0
35 2 6.394059152658025 4.925561489938308 13.362648796946598 3 1 0
61 3 6.469248678902205 7.519860637295751 13.365876826991913 3 1 0
55 3 5.212476772553603 5.763168284194271 15.642190183260325 3 1 0
36 2 7.767818814858546 4.032385018677415 15.725838272439002 3 1 0
41 2 9.073972349579144 5.885777358143388 13.389369413551778 3 1 0
43 3 10.355278389614426 7.546829793428794 15.637259800435078 3 1 0
17 2 10.384461146759834 4.965104090643247 15.72580357803529 3 1 0
37 3 7.763297720180344 6.682587795720337 15.664863027980292 3 1 0
27 3 14.035980332766657 7.431815036546413 13.33721984471053 3 1 0
20 3 11.664084739953136 6.724726978829228 13.34641030582616 3 1 0
3 3 14.139253175058604 4.892468723608736 13.346343854872542 3 1 0
21 3 12.894483625072656 5.816364577934705 15.645400609916047 3 1 0
19 2 11.706281310594461 4.055551238686886 13.359860891568102 3 1 0
638 2 6.4300553948941275 2.064761216178496 8.649040917888634 3 2 0
626 2 9.08768450761944 0.2291571392964166 8.661150071947981 3 2 0
664 3 2.8206079901220815 2.0589467784081785 19.97229817648757 4 2 0
663 3 1.6599710915489432 3.0012440888997913 17.811173277104622 4 2 0
658 3 0.47169789217689095 1.2302680714562504 19.976549020656066 4 2 0
79 3 0.4596184156963268 3.8846008412469075 19.98071631526009 4 1 0
662 3 1.690923700916153 0.30424793596716776 17.808743054967717 4 2 0
706 3 3.981123567950935 1.141812875648831 17.84229760773335 3 2 0
708 2 5.307267787422913 2.987998357835184 20.056043669586447 3 2 0
710 2 6.544029782408963 2.110649992757979 17.918339442644083 3 2 0
707 3 5.282040274284574 0.2417695356411883 20.1015607144293 3 2 0
694 3 7.848904572924425 1.1899630947668467 20.152256423760992 3 2 0
700 3 10.31954253868927 2.157318996350502 20.11204310041337 3 2 0
699 3 9.109482810628121 3.10744025498304 18.0056225612145 3 2 0
698 2 9.095565931208013 0.2490722050553601 17.99607237513348 3 2 0
678 2 11.6653740977849 1.2400175818048385 17.96909139918477 3 2 0
680 3 12.821681846700871 3.053456027954689 20.04924680292743 3 2 0
682 3 14.14497156569584 2.1515034803988473 17.889412215910014 3 2 0
679 3 12.847535899955934 0.32940167163793654 20.064594468360674 3 2 0
74 3 2.8602544058268786 4.753768714874764 19.9583367164184 4 1 0
87 3 2.9027139104190764 7.332110058781386 19.95982724447598 4 1 0
85 3 1.648573491372936 5.642397907395559 17.80249573993616 4 1 0
80 3 0.47100725485801165 6.485900146917595 19.982929353045996 4 1 0
129 3 3.992017698112063 3.9308995011808268 17.838446411777365 3 1 0
130 3 4.080795135655334 6.501018851141788 17.79304473791398 3 1 0
110 3 6.541798984376466 4.8790776259729425 17.892975488800367 3 1 0
131 3 5.359900613813244 5.665264145111494 19.97243505355243 3 1 0
136 3 6.575669132747537 7.375488600578832 17.81339201536192 3 1 0
111 3 7.8969391689539545 3.9151421406869273 20.0509749410873 3 1 0
112 3 7.849125920481392 6.497538302349162 20.00412321043746 3 1 0
90 3 10.341134038564595 4.7911162356269585 20.047209721986015 3 1 0
119 3 10.326545657649277 7.368818382833592 20.02013577911164 3 1 0
117 3 9.065482889113365 5.729952870890894 17.93627059106198 3 1 0
95 3 11.603166432048065 4.0070991298452485 17.97716843478402 3 1 0
96 3 11.60336864074088 6.577485147549583 17.900069909989377 3 1 0
78 3 14.043934830903881 4.825738821614559 17.87131871978304 3 1 0
97 3 12.809393419101987 5.655377103194239 20.033083650590253 3 1 0
102 3 14.043986309691645 7.382175686206333 17.833420315313255 3 1 0
659 3 1.6647002372484785 0.3368792959659497 22.09183814021062 4 2 0
660 3 1.6755158830720798 2.9673849585038705 22.092380419145865 4 2 0
661 3 2.9140017714417774 2.074882676576995 24.20603505334081 4 2 0
654 3 0.4497631962567973 1.2332118415774003 24.19887014805131 4 2 0
76 3 0.4646340991276859 3.838528808835448 24.208744835642584 4 1 0
703 3 5.36358520504114 0.3181986312192567 24.24040317135534 3 2 0
702 3 4.10532435318457 1.164391773196491 22.142150742634513 3 2 0
709 3 6.632625224413188 2.0548449678553316 22.18520013500366 3 2 0
704 3 5.387465276093988 2.9410446189203694 24.223893661058415 3 2 0
690 3 7.836572701452709 1.2058406326818327 24.241308528935058 3 2 0
108 3 7.855951807883682 3.8282624094465607 24.23818983456834 3 1 0
696 3 9.095397376094478 2.983440736917023 22.152818420023817 3 2 0
697 3 10.311427772410141 2.100138219278515 24.23781113464111 3 2 0
695 3 9.074931515057457 0.32625770920463465 22.15492415821584 3 2 0
675 3 12.755961001809222 0.3706223722704592 24.21003625842902 3 2 0
674 3 11.554275250794051 1.2426589788674622 22.139735906325427 3 2 0
681 3 14.01245156342618 2.123711020328454 22.11290478367824 3 2 0
676 3 12.779511820410374 2.98087829761936 24.232799410344462 3 2 0
73 3 2.927257581004946 4.692941889595308 24.199927758934706 4 1 0
83 3 2.9175621398877225 7.301210877847229 24.21150868708206 4 1 0
81 3 1.6905188249403351 5.588983517291183 22.09247379194232 4 1 0
77 3 0.46346528422574124 6.444488886420956 24.221487195228978 4 1 0
125 3 4.112926621744639 3.8519868754010727 22.14966859709383 3 1 0
126 3 4.1486160793686455 6.451335093763986 22.09119270891978 3 1 0
107 3 6.640089818125056 4.735767839728098 22.141406059037855 3 1 0
133 3 6.611708537779281 7.319255999347297 22.112128433454693 3 1 0
127 3 5.389800517865341 5.560560556798891 24.211896531794824 3 1 0
109 3 7.8516324048577815 6.438332622672981 24.22991596284273 3 1 0
89 3 10.322576205047293 4.711092432943908 24.24635155108464 3 1 0
115 3 10.314941044695452 7.318430364457883 24.240531987606268 3 1 0
113 3 9.097172259720443 5.606530195002966 22.142466886362442 3 1 0
91 3 11.563067661643695 3.872834595011045 22.14986170488089 3 1 0
75 3 14.018642607483491 4.736636808913186 22.12370960121109 3 1 0
99 3 14.015417113991145 7.335248617055078 22.124133702994676 3 1 0
93 3 12.784864662343422 5.58431564647724 24.23912581951217 3 1 0
92 3 11.557957910556267 6.478203296422718 22.145516312125284 3 1 0
736 3 2.916934641970459 2.094451004658558 28.439493747593332 4 2 0
735 3 1.6939766999442625 2.959570152779123 26.31046097170968 4 2 0
730 3 0.45179131061263206 1.286939677451858 28.434635434620713 4 2 0
734 3 1.6915147494439726 0.3750155004710383 26.293113530966764 4 2 0
778 3 4.144790629952401 1.2113791397192533 26.326030305577707 3 2 0
780 3 5.372278004978358 2.949082452875246 28.445858370332424 3 2 0
782 3 6.602743573525699 2.0792647531790895 26.334824871660228 3 2 0
779 3 5.367753488403425 0.3426459844479588 28.454239641145477 3 2 0
770 3 9.05002620669948 0.35518380460513543 26.332186992380873 3 2 0
183 3 7.84127853161217 3.8140107339745404 28.447506041212854 3 1 0
766 3 7.8234733351791625 1.217738755847805 28.448004852429392 3 2 0
772 3 10.291577155082008 2.09803350326053 28.44268893039291 3 2 0
771 3 9.071844304784396 2.9561078621442585 26.33846238338016 3 2 0
750 3 11.519437517837096 1.237073548262296 26.32700651708821 3 2 0
167 3 11.542965649421511 3.8371844014215712 26.34006233988324 3 1 0
752 3 12.763985752264578 2.9733679676357627 28.441661461831984 3 2 0
754 3 13.998565517301753 2.1077166171236636 26.31862278465216 3 2 0
751 3 12.726073696065493 0.38777764007598187 28.43320315284413 3 2 0
151 3 0.4620894597215632 3.8305175862839973 28.438987173299864 4 1 0
146 3 2.9186677551895785 4.682602610185434 28.439191494440674 4 1 0
157 3 1.6960040040069284 5.55652512957937 26.315548272655583 4 1 0
159 3 2.86627308593431 7.275918712340638 28.44988488620671 4 1 0
152 3 0.463250870387715 6.42847906969324 28.45035880022138 4 1 0
201 3 4.154964459309186 3.8120920442815613 26.315626658579294 3 1 0
202 3 4.13978172687126 6.404302142741783 26.301492839816277 3 1 0
182 3 6.6174979286342435 4.6797783954571175 26.330823714217768 3 1 0
203 3 5.380328447611948 5.497196121161248 28.4446865162104 3 1 0
208 3 6.641280470451902 7.276678981330568 26.288530677321898 3 1 0
184 3 7.873624978779263 6.401692644893717 28.448626286621014 3 1 0
162 3 10.306780626088146 4.693622610781945 28.449641064155035 3 1 0
191 3 10.307972644652748 7.289176953692661 28.451489304500473 3 1 0
189 3 9.084959496896207 5.55598509330402 26.341941111200875 3 1 0
168 3 11.546201273399518 6.435126226628282 26.340867683429213 3 1 0
150 3 14.013869480109232 4.704010326318038 26.328698425431316 3 1 0
174 3 14.007343043238617 7.3065516373782735 26.33638384915698 3 1 0
169 3 12.778441081065443 5.566795674705051 28.451129654772146 3 1 0
732 3 1.6844200688201594 2.9648349874064177 30.563998537821245 4 2 0
733 3 2.90562034507097 2.0936967308740844 32.680814577156355 4 2 0
726 3 0.451728241979533 1.23799213054726 32.678717296393806 4 2 0
783 3 0.45073074368749755 3.8328113360344753 32.678365115098245 4 1 0
731 3 1.694452388640727 0.3815831202757187 30.584793668409898 4 2 0
775 3 5.35530609743169 0.3589450193060034 32.67900535309839 3 2 0
774 3 4.138666987142038 1.224732134606452 30.569995761866767 3 2 0
197 3 4.140022158079303 3.8196669632565823 30.567356705302068 3 1 0
781 3 6.596947316271806 2.090262964319236 30.565889480115914 3 2 0
776 3 5.364269165938099 2.9576310292716763 32.678928327820216 3 2 0
767 3 9.055803107228627 0.36827546246426623 30.554169874973837 3 2 0
762 3 7.822911600986598 1.2351065365421694 32.667405445420535 3 2 0
768 3 9.063529516134665 2.9597832011448584 30.55695962324465 3 2 0
769 3 10.298780442504512 2.104268297510464 32.660245867088555 3 2 0
746 3 11.521503892984578 1.2421413707184605 30.55143757101285 3 2 0
753 3 13.995625162933832 2.110060870500698 30.557931076380285 3 2 0
748 3 12.767542918297046 2.972883212744631 32.66817893060082 3 2 0
747 3 12.769723788407784 0.3765183617103512 32.66291235616601 3 2 0
145 3 2.9100351205238546 4.6923543307470394 32.681194506199304 4 1 0
153 3 1.6845738210088723 5.554810708057087 30.56955481645939 4 1 0
155 3 2.914902990570549 7.293318782587415 32.6833824014615 4 1 0
149 3 0.45355286755668583 6.424947757981467 32.680182642592996 4 1 0
198 3 4.132015522924985 6.403638600900776 30.589725098866477 3 1 0
179 3 6.605368338448239 4.680550083127666 30.564944045530407 3 1 0
205 3 6.636143924397932 7.272552127240175 30.610661270308828 3 1 0
199 3 5.368385765524719 5.553874352056491 32.68284332757655 3 1 0
180 3 7.828518575199583 3.8231366872734873 32.66919266963659 3 1 0
187 3 10.297419354541347 7.290447815872543 32.67196767791057 3 1 0
185 3 9.074066346999732 5.549621086379313 30.561859579461455 3 1 0
161 3 10.298909615963767 4.69387365028273 32.669984633579006 3 1 0
181 3 7.832195844273142 6.422224955354022 32.67517926665966 3 1 0
163 3 11.533627375857643 3.833745685516376 30.559084206129103 3 1 0
171 3 14.001560713510669 7.291675878856127 30.57719923467506 3 1 0
147 3 14.002607655311385 4.698056730895357 30.56541945043115 3 1 0
165 3 12.767350315864059 5.56094427512308 32.67697326336089 3 1 0
164 3 11.536252155080907 6.420980211045844 30.569265778363313 3 1 0
809 3 2.907207997201186 2.0897976128654125 36.90209477996956 4 2 0
808 3 1.6774457851616698 2.9615253725443185 34.792428746211456 4 2 0
222 3 0.4506297515287255 3.8305289582894133 36.89768370642017 4 1 0
803 3 0.45113385925465566 1.22632276534095 36.902212156524236 4 2 0
807 3 1.6710301923626238 0.3561367584203152 34.79396761355142 4 2 0
852 3 5.359566209851012 0.3536461669597361 36.89117087896057 3 2 0
851 3 4.128784574990097 1.2224329980395954 34.79167058702062 3 2 0
272 3 4.136554902044355 3.8268315210013366 34.791325201222726 3 1 0
853 3 5.367043424359884 2.9635809068772723 36.89508563680296 3 2 0
855 3 6.59026159450358 2.098234226238894 34.78462024687411 3 2 0
843 3 9.060623135089626 0.4226499693105856 34.77893778846526 3 2 0
254 3 7.831341732127249 3.832194350856114 36.89135671443048 3 1 0
839 3 7.830020367657982 1.2360068297471962 36.89055516361933 3 2 0
845 3 10.304876533506201 2.1031257305129616 36.89495780373071 3 2 0
844 3 9.064125485550436 2.967687608714495 34.779054679965 3 2 0
823 3 11.540046681193688 1.2384991141040136 34.77898062480113 3 2 0
238 3 11.534426835393628 3.832084484554695 34.78168746155387 3 1 0
825 3 12.768303707413944 2.967949716146313 36.894948102495555 3 2 0
827 3 13.998534307898 2.100421298223543 34.78688828162864 3 2 0
824 3 12.775894837267808 0.36673433468437905 36.90640996040858 3 2 0
217 3 2.9099681361848737 4.697178843589428 36.89789011807642 4 1 0
230 3 2.9142185592021335 7.304194817463294 36.89259692885599 4 1 0
228 3 1.6821343558751236 5.563624119525622 34.7897022632121 4 1 0
223 3 0.45455768799970586 6.432445279565988 36.894607698893985 4 1 0
273 3 4.14214789105238 6.431058200187186 34.79062140611681 3 1 0
253 3 6.597025669643634 4.69457242398186 34.78538805254014 3 1 0
274 3 5.369162592657096 5.565467867644325 36.89505368498202 3 1 0
279 3 6.598290331288083 7.298637661245005 34.78827101446549 3 1 0
255 3 7.829403962168043 6.429498365560901 36.89484912490042 3 1 0
233 3 10.298351675200559 4.698833832554227 36.89214531523685 3 1 0
260 3 9.0599514734257 5.563221983263424 34.781124092835476 3 1 0
262 3 10.295188416035128 7.2943135474697645 36.90358443971143 3 1 0
239 3 11.53120067254077 6.426524834154029 34.78806496877744 3 1 0
221 3 13.997733963093875 4.697645036822827 34.7880394559464 3 1 0
245 3 14.00556328462174 7.293697580175006 34.79008382914591 3 1 0
240 3 12.765975795445808 5.565413789549488 36.896656004306024 3 1 0
805 3 1.678320320077198 2.9612453007839803 39.004604912772514 4 2 0
806 3 2.902990331722128 2.0933772432709867 41.10329407939517 4 2 0
856 3 0.4454955203107159 3.8310059688736677 41.10470773005821 4 1 0
799 3 0.44583785869950415 1.2193386041578127 41.10629898379075 4 2 0
804 3 1.678604417437739 0.3472876112339717 39.00532332573086 4 2 0
847 3 4.137930221181039 1.219642761891717 38.996360776098186 3 2 0
854 3 6.6074786996271175 2.0999867283888585 38.98846277532334 3 2 0
849 3 5.371210986793132 2.9673667879635905 41.096419583095276 3 2 0
848 3 5.34854924633437 0.3634892517083624 41.046995555376455 3 2 0
840 3 9.079190615200826 0.36377016443316895 38.994184795031856 3 2 0
835 3 7.859206457161753 1.242196369499547 41.07125891191462 3 2 0
841 3 9.071187591790189 2.969539623217175 38.995857748968476 3 2 0
842 3 10.30871019303878 2.0983478689432387 41.09810995356103 3 2 0
819 3 11.540634256791403 1.2305682918326124 39.001720734720834 3 2 0
826 3 13.99797115503076 2.0948554194239195 39.00385560406211 3 2 0
821 3 12.763999964460703 2.962381533765293 41.10456789585067 3 2 0
820 3 12.769248245983674 0.348388868142148 41.10642534590474 3 2 0
220 3 0.4460505739307274 6.4405562246642205 41.09991956850082 4 1 0
216 3 2.9058501038881666 4.7030635543349515 41.10305069849934 4 1 0
224 3 1.679158246716926 5.568716826073792 38.99972890575042 4 1 0
226 3 2.9067163564024168 7.30855698688785 41.100448363185556 4 1 0
268 3 4.139747875781094 3.832889866664077 39.002164263443156 3 1 0
269 3 4.138961095884467 6.436912288760853 38.99984924610247 3 1 0
250 3 6.60204256517542 4.702722476554768 38.99741988960161 3 1 0
276 3 6.600108293320357 7.301556915161359 39.00228433352064 3 1 0
270 3 5.369502925218507 5.569737479978457 41.102213349049585 3 1 0
251 3 7.841197503138971 3.8382312460726316 41.096879506765916 3 1 0
232 3 10.303404518125275 4.704030284164337 41.10335717314985 3 1 0
252 3 7.836046450364305 6.4380361763444816 41.10523391116916 3 1 0
256 3 9.066866778572242 5.567569018406387 38.99972655134545 3 1 0
258 3 10.30161822178637 7.305756397869955 41.10647456817896 3 1 0
234 3 11.534684490902888 3.8341901149338162 38.99919490882659 3 1 0
236 3 12.763841184336679 5.570065729854446 41.103442769629304 3 1 0
218 3 13.995887227388687 4.699775632659539 39.000804817126905 3 1 0
242 3 13.996237021847314 7.303409619700865 38.99680713632696 3 1 0
235 3 11.53236873708646 6.432704745244792 39.00236379356884 3 1 0
882 3 2.903504113809688 2.091782358658316 45.306610296353185 4 2 0
881 3 1.673636518551621 2.9609419545578604 43.20623720398248 4 2 0
876 3 0.44535852520859026 1.2158380803892477 45.30870526739891 4 2 0
880 3 1.6733632600666486 0.3485319083717736 43.20611487786875 4 2 0
293 3 0.44632892298712623 3.829402089275262 45.30702776566037 4 1 0
924 3 4.1136311535088135 1.2365915792514983 43.20264642698137 3 2 0
343 3 4.134425012283328 3.835412077095131 43.20523375387598 3 1 0
926 3 5.372688181337848 2.9659849157155915 45.311018550902354 3 2 0
928 3 6.608480570401752 2.1458015619338764 43.20281797493878 3 2 0
925 3 5.347614460803091 0.36303560120233347 45.352545481999826 3 2 0
912 3 7.858307482443117 1.2381101017674163 45.33327653711505 3 2 0
918 3 10.309585877752584 2.0931098863712285 45.314866908705966 3 2 0
917 3 9.077146013007585 2.9677508333874725 43.20599718300929 3 2 0
916 3 9.131046115238625 0.363480818123091 43.20426514384425 3 2 0
930 3 7.843925658779333 3.8362348480422748 45.314194764070415 3 1 0
896 3 11.53817970683117 1.2181849388995942 43.20821556098697 3 2 0
898 3 12.764562434724212 2.9592315097263078 45.30970211786745 3 2 0
900 3 13.990105273905195 2.087435304058865 43.208071001198064 3 2 0
897 3 12.768093897681778 0.34219272075806095 45.31174931145378 3 2 0
929 3 11.532527973285088 3.833602884175687 43.20721396985005 3 1 0
288 3 2.9077955885452265 4.702011503080384 45.30723165549037 4 1 0
301 3 2.9095497508475128 7.3080565077340145 45.30596477879331 4 1 0
299 3 1.675783656848781 5.571587274654385 43.20412392818654 4 1 0
294 3 0.44835409243338054 6.440156660745424 45.304714516046886 4 1 0
344 3 4.138301460703256 6.439771354125388 43.20556370036332 3 1 0
350 3 6.6043306137150415 7.307119082319215 43.20788678037421 3 1 0
345 3 5.372839270626826 5.569662982290335 45.310257427573944 3 1 0
324 3 6.605592961464388 4.703167237983199 43.206440562206105 3 1 0
326 3 7.840006433957221 6.44024990540998 45.310096710953154 3 1 0
304 3 10.305882855359728 4.703866985497706 45.309986313985874 3 1 0
333 3 10.304920684604003 7.3101133337549316 45.308066753620444 3 1 0
331 3 9.072914978636785 5.570932031601055 43.20768982003722 3 1 0
310 3 11.534470508138297 6.441035038785488 43.20595871249138 3 1 0
292 3 13.99232912029743 4.700447602460385 43.205493104179155 3 1 0
316 3 13.994672747195262 7.311445028460422 43.20174996546029 3 1 0
311 3 12.765656696244006 5.571153558926816 45.30662658828923 3 1 0
877 3 1.6804673054332764 0.34009452288629277 47.405279234774206 4 2 0
878 3 1.6812607234563068 2.9562694967845284 47.404883685301186 4 2 0
879 3 2.9182102445159805 2.081135278709008 49.50071631106791 4 2 0
872 3 0.4547731873849398 1.211438560669923 49.50338643443934 4 2 0
290 3 0.4544038301630112 3.8245655492238 49.50386397733034 4 1 0
920 3 4.1443001315316215 1.214078976590172 47.40796843609006 3 2 0
927 3 6.612985524530883 2.0909707035914877 47.41418659947084 3 2 0
922 3 5.380504201497383 2.95490892638205 49.50581573753788 3 2 0
921 3 5.381101132337283 0.338901006687394 49.50713160349112 3 2 0
931 3 4.145491084904457 3.82975810084961 47.40570573457484 3 1 0
913 3 9.078226556767424 0.34721390376197614 47.4144228084931 3 2 0
908 3 7.8434208214667045 1.2141635611817763 49.51022603364761 3 2 0
322 3 7.842973808201296 3.8275030004737607 49.508843801413455 3 1 0
914 3 9.075852834776141 2.9603630874462867 47.412003905903845 3 2 0
915 3 10.307112615459763 2.085120079648781 49.50836227786326 3 2 0
893 3 12.768744993485594 0.34179128806491116 49.50561275146974 3 2 0
305 3 11.53774249517105 3.8295119734770204 47.4092863713932 3 1 0
899 3 13.997949497269172 2.085320032977075 47.40781284759225 3 2 0
892 3 11.539696492889195 1.2155786009220184 47.41112178997829 3 2 0
894 3 12.76957109490081 2.955260783652315 49.506140088310715 3 2 0
291 3 0.4528912743665789 6.437216249389872 49.50455553877622 4 1 0
295 3 1.6813933229755593 5.567994197364281 47.40611090070498 4 1 0
287 3 2.9161916871035296 4.694608133259072 49.503745083930056 4 1 0
297 3 2.9143655222638887 7.306741292103528 49.50577133909946 4 1 0
340 3 4.1439548360758405 6.437764851464362 47.40804601204971 3 1 0
347 3 6.60838586968211 7.307788269511477 47.40951047944405 3 1 0
321 3 6.60941029699855 4.701543957731754 47.411057356513176 3 1 0
341 3 5.37841916273169 5.56676360476019 49.50705659041108 3 1 0
323 3 7.842245728276982 6.438510350941049 49.507946434403756 3 1 0
329 3 10.305521806090692 7.309866173743952 49.50614302138336 3 1 0
327 3 9.073962264703406 5.57111553411811 47.40978681608151 3 1 0
303 3 10.306440461379124 4.698042936594044 49.50730604134855 3 1 0
307 3 12.768561137315544 5.568059323035256 49.50542292100912 3 1 0
306 3 11.536856751049172 6.440542261273514 47.40743017745319 3 1 0
289 3 13.99766280530653 4.69849963265099 47.40667821493561 3 1 0
313 3 13.997848241598085 7.309702505303525 47.4054297650087 3 1 0
957 3 2.917736015392553 2.0808903448397764 53.69842809869843 4 2 0
956 3 1.6869666005678248 2.951799207866315 51.60015628129757 4 2 0
951 3 0.4553079326620969 1.2108647177238616 53.698440750659216 4 2 0
955 3 1.6863291127860423 0.33968834838866335 51.60048750393448 4 2 0
1004 3 0.4549834609135244 3.822971454272831 53.698860871636626 4 1 0
999 3 4.149303265586887 1.2101296825359964 51.60080039993228 3 2 0
1001 3 5.380232355400702 2.9518451301089708 53.69987405733607 3 2 0
1003 3 6.611772450155115 2.082499963295815 51.604059313943566 3 2 0
1000 3 5.380352501620853 0.3395950947667687 53.699636222153195 3 2 0