LAMMPS (22 Dec 2022)
OMP_NUM_THREADS environment is not set. Defaulting to 1 thread. (../comm.cpp:98)
  using 1 OpenMP thread(s) per MPI task
# general variables
variable	temperature equal 300
variable	nsteps_run equal 1000000

# general settings
units		metal
dimension 3
boundary	p p p

#processors      3 3 3
atom_style	atomic

# ------------------- ATOM DEFINE ------------------------------

variable        latparam equal 3.01685999999993             #variable

variable        xl equal 0
variable        xh equal 3
variable        yl equal 0
variable        yh equal 3
variable        zl equal 0
variable        zh equal 16

lattice         bcc ${latparam} orient x 1 1 -2 orient y 1 1 1 orient z 1 -1 0
lattice         bcc 3.01685999999993 orient x 1 1 -2 orient y 1 1 1 orient z 1 -1 0
Lattice spacing in x,y,z = 4.9265118 5.2253548 4.2664843
region          mybox block ${xl} ${xh} ${yl} ${yh} ${zl} ${zh}
region          mybox block 0 ${xh} ${yl} ${yh} ${zl} ${zh}
region          mybox block 0 3 ${yl} ${yh} ${zl} ${zh}
region          mybox block 0 3 0 ${yh} ${zl} ${zh}
region          mybox block 0 3 0 3 ${zl} ${zh}
region          mybox block 0 3 0 3 0 ${zh}
region          mybox block 0 3 0 3 0 16

create_box      5 mybox
Created orthogonal box = (0 0 0) to (14.779535 15.676064 68.263749)
  1 by 2 by 8 MPI processor grid

mass 1 180.948
mass 2 92.9064
mass 3 50.9415
mass 4 95.94
mass 5 183.84

create_atoms 3 box
Created 1152 atoms
  using lattice units in orthogonal box = (0 0 0) to (14.779535 15.676064 68.263749)
  create_atoms CPU = 0.016 seconds
set type 3 type/ratio 2 0.05 384
Setting atom values ...
  57 settings made for type/ratio

# ----------------------- FORCE FIELDS -----------------------
pair_style mlip mlip.ini
pair_coeff * *

# ------------------------- SETTINGS --------------------------
timestep 0.001
delete_atoms overlap 2 all all
System init for delete_atoms ...
Neighbor list info ...
  update: every = 1 steps, delay = 0 steps, check = yes
  max neighbors/atom: 2000, page size: 100000
  master list distance cutoff = 6.8
  ghost atom cutoff = 6.8
  binsize = 3.4, bins = 5 5 21
  2 neighbor lists, perpetual/occasional/extra = 1 1 0
  (1) command delete_atoms, occasional, copy from (2)
      attributes: full, newton on
      pair build: copy
      stencil: none
      bin: none
  (2) pair mlip, perpetual
      attributes: full, newton on
      pair build: full/bin/atomonly
      stencil: full/bin/3d
      bin: standard
Deleted 0 atoms, new total = 1152
velocity all create ${temperature} 4928459 rot yes dist gaussian
velocity all create 300 4928459 rot yes dist gaussian

fix 1 all atom/swap 1 1 114514 ${temperature} types 3 2
fix 1 all atom/swap 1 1 114514 300 types 3 2
fix temp all npt temp ${temperature} ${temperature} 0.1 iso 0 0 0.1
fix temp all npt temp 300 ${temperature} 0.1 iso 0 0 0.1
fix temp all npt temp 300 300 0.1 iso 0 0 0.1
thermo 1000
thermo_style custom step pe ke etotal time cpu tpcpu

dump 1 all custom 20000 dump.* id type x y z
run ${nsteps_run}
run 1000000
Neighbor list info ...
  update: every = 1 steps, delay = 0 steps, check = yes
  max neighbors/atom: 2000, page size: 100000
  master list distance cutoff = 6.8
  ghost atom cutoff = 6.8
  binsize = 3.4, bins = 5 5 21
  1 neighbor lists, perpetual/occasional/extra = 1 0 0
  (1) pair mlip, perpetual
      attributes: full, newton on
      pair build: full/bin/atomonly
      stencil: full/bin/3d
      bin: standard
Per MPI rank memory allocation (min/avg/max) = 4.351 | 4.354 | 4.355 Mbytes
   Step         PotEng         KinEng         TotEng          Time           CPU           T/CPU     
         0  -10499.523      44.633528     -10454.89       0              0              0            
      1000  -10466.966      43.943594     -10423.023      1              113.86344      0.0087824499 
      2000  -10464.01       46.41322      -10417.597      2              230.86689      0.0085467568 
      3000  -10466.011      44.82374      -10421.187      3              348.48945      0.0085017704 
      4000  -10465.106      43.606001     -10421.5        4              464.19246      0.0086428174 
      5000  -10464.544      45.145004     -10419.399      5              580.74023      0.0085801729 
      6000  -10465.202      43.334508     -10421.868      6              696.85527      0.0086121486 
      7000  -10461.943      45.213329     -10416.729      7              814.30366      0.0085143785 
      8000  -10465.163      43.986408     -10421.177      8              930.30934      0.0086202675 
      9000  -10466.006      43.652835     -10422.354      9              1047.4167      0.0085391714 
     10000  -10466.098      46.508755     -10419.59       10             1165.0809      0.00849876   
     11000  -10463.228      44.248736     -10418.979      11             1280.736       0.0086464036 
     12000  -10467.454      45.470242     -10421.984      12             1397.5809      0.0085583498 
     13000  -10465.441      43.462143     -10421.979      13             1514.5438      0.0085497247 
     14000  -10465.001      44.777339     -10420.223      14             1631.1163      0.0085783464 
     15000  -10464.706      42.713409     -10421.993      15             1748.761       0.0085001712 
     16000  -10464.586      43.450709     -10421.135      16             1865.9604      0.0085324669 
     17000  -10466.11       43.245696     -10422.864      17             1983.5281      0.0085057427 
     18000  -10464.477      45.50055      -10418.976      18             2102.1502      0.0084301306 
     19000  -10465.664      45.554555     -10420.109      19             2222.1796      0.0083312882 
     20000  -10465.618      45.028117     -10420.59       20             2344.2144      0.0081943883 
     21000  -10466.218      44.807783     -10421.411      21             2465.4601      0.008247716  
     22000  -10463.31       45.054469     -10418.256      22             2586.5977      0.0082550732 
     23000  -10466.799      44.629076     -10422.17       23             2706.6415      0.0083302903 
     24000  -10465.313      45.095764     -10420.217      24             2827.1412      0.0082987802 
     25000  -10466.104      45.000289     -10421.104      25             2946.9394      0.0083473675 
     26000  -10466.718      43.653995     -10423.064      26             3066.9436      0.0083330391 
     27000  -10465.233      44.591789     -10420.641      27             3186.3649      0.0083737202 
     28000  -10466.105      44.125004     -10421.98       28             3305.0167      0.0084280224 
     29000  -10465.592      45.952564     -10419.639      29             3424.0083      0.0084039535 
     30000  -10465.125      43.871072     -10421.254      30             3543.8349      0.0083453883 
     31000  -10466.46       46.795988     -10419.664      31             3663.5214      0.0083551644 
     32000  -10464.427      43.973862     -10420.454      32             3783.389       0.0083425377 
     33000  -10467.393      45.261976     -10422.131      33             3902.0901      0.0084245243 
     34000  -10466.716      45.585304     -10421.131      34             4020.0382      0.0084783053 
     35000  -10466.264      42.857389     -10423.407      35             4138.3021      0.0084556665 
     36000  -10466.085      46.151879     -10419.934      36             4257.7131      0.0083744344 
     37000  -10465.872      43.558369     -10422.313      37             4379.5431      0.0082081621 
     38000  -10464.932      45.106259     -10419.826      38             4500.0418      0.0082988443 
     39000  -10466.652      45.049088     -10421.603      39             4620.5852      0.0082957637 
     40000  -10466.529      44.958743     -10421.57       40             4741.1058      0.0082973402 
     41000  -10466.89       45.765095     -10421.125      41             4862.3944      0.0082447968 
     42000  -10466.762      44.700042     -10422.062      42             4984.4938      0.0081900479 
     43000  -10468.402      45.906236     -10422.496      43             5105.3694      0.008272968  
     44000  -10465.427      44.631073     -10420.796      44             5224.4786      0.0083956578 
     45000  -10465.563      43.407029     -10422.156      45             5343.9802      0.0083680856 
     46000  -10466.401      43.649844     -10422.751      46             5463.1636      0.0083904353 
     47000  -10467.564      45.805624     -10421.759      47             5580.8183      0.0084994418 
     48000  -10467.418      43.870227     -10423.548      48             5697.766       0.0085508319 
     49000  -10465.875      46.891518     -10418.984      49             5816.3874      0.0084301848 
     50000  -10468.04       45.344248     -10422.696      50             5935.352       0.0084058624 
     51000  -10466.74       45.051994     -10421.688      51             6052.3637      0.0085461499 
     52000  -10467.879      42.467083     -10425.412      52             6169.4145      0.0085433032 
     53000  -10465.342      44.801533     -10420.54       53             6285.426       0.0086198353 
     54000  -10466.042      42.773769     -10423.268      54             6401.6632      0.0086030947 
     55000  -10467.177      46.806293     -10420.371      55             6517.7815      0.0086119103 
     56000  -10466.589      45.728017     -10420.861      56             6631.3744      0.0088033633 
     57000  -10467.561      43.986843     -10423.574      57             6744.471       0.0088420005 
     58000  -10466.894      45.766349     -10421.128      58             6856.4613      0.0089293447 
     59000  -10465.147      46.602753     -10418.544      59             6970.1963      0.0087923672 
     60000  -10467.717      45.284013     -10422.433      60             7081.2264      0.0090065721 
     61000  -10465.502      45.221445     -10420.281      61             7192.1612      0.0090142995 
     62000  -10466.845      42.819067     -10424.026      62             7303.1238      0.0090120447 
     63000  -10466.628      44.972095     -10421.656      63             7413.6182      0.0090502326 
     64000  -10469.127      46.505765     -10422.621      64             7523.9689      0.0090620206 
     65000  -10466.766      43.275717     -10423.49       65             7635.3062      0.0089817137 
     66000  -10465.421      46.014372     -10419.406      66             7745.4741      0.0090770588 
     67000  -10466.54       44.875964     -10421.664      67             7856.0917      0.0090401499 
     68000  -10466.043      43.62364      -10422.419      68             7967.2881      0.0089930933 
     69000  -10465.568      44.880124     -10420.687      69             8077.912       0.0090396383 
     70000  -10468.303      44.245669     -10424.058      70             8188.6546      0.0090299476 
     71000  -10465.606      43.018374     -10422.587      71             8299.7823      0.0089986638 
     72000  -10468.142      43.224781     -10424.917      72             8409.9716      0.0090752847 
     73000  -10468.223      45.611028     -10422.612      73             8520.2767      0.0090657677 
     74000  -10468.133      43.980814     -10424.152      74             8630.6956      0.0090564196 
     75000  -10468.234      44.954145     -10423.28       75             8740.5307      0.0091045587 
     76000  -10467.116      43.411176     -10423.705      76             8849.7257      0.0091579256 
     77000  -10464.827      44.799539     -10420.027      77             8959.178       0.0091364048 
     78000  -10467.484      44.343769     -10423.14       78             9068.2453      0.0091686447 
     79000  -10467.685      44.079541     -10423.606      79             9178.0972      0.0091031716 
     80000  -10466.088      44.916093     -10421.171      80             9287.2524      0.0091612632 
     81000  -10465.838      44.30179      -10421.536      81             9396.6542      0.0091406164 
     82000  -10467.466      45.06663      -10422.4        82             9506.0436      0.0091416526 
     83000  -10465.811      44.115955     -10421.695      83             9615.2917      0.0091534843 
     84000  -10465.639      44.857961     -10420.781      84             9725.0599      0.0091101009 
     85000  -10469.727      43.695506     -10426.031      85             9835.1918      0.0090800201 
     86000  -10467.772      45.34061      -10422.432      86             9944.8064      0.0091228777 
     87000  -10468.138      44.480957     -10423.657      87             10054.145      0.0091458836 
     88000  -10467.059      43.757298     -10423.302      88             10162.857      0.0091986446 
     89000  -10466.919      44.945328     -10421.974      89             10271.458      0.0092080126 
     90000  -10467.62       43.01227      -10424.607      90             10380.944      0.0091335919 
     91000  -10466.523      46.027131     -10420.495      91             10489.617      0.0092019291 
     92000  -10467.326      44.13524      -10423.191      92             10598.886      0.0091517296 
     93000  -10465.848      43.82068      -10422.027      93             10707.827      0.0091792397 
     94000  -10466.919      44.452746     -10422.466      94             10816.412      0.0092093801 
     95000  -10468.193      45.674343     -10422.519      95             10925.914      0.0091322329 
     96000  -10467.072      43.987219     -10423.084      96             11036.003      0.0090835836 
     97000  -10468.654      45.600062     -10423.054      97             11145.963      0.0090941909 
     98000  -10467.514      46.20875      -10421.306      98             11255.374      0.0091398418 
     99000  -10468.609      43.669677     -10424.939      99             11365.017      0.0091205546 
    100000  -10466.518      44.671732     -10421.846      100            11475.043      0.0090887454 
    101000  -10467.601      42.981202     -10424.62       101            11585.43       0.0090590375 
    102000  -10465.789      45.631237     -10420.158      102            11695.126      0.0091161229 
    103000  -10468.112      44.184094     -10423.928      103            11804.853      0.0091135418 
    104000  -10467.173      46.253054     -10420.92       104            11913.747      0.0091831795 
    105000  -10468.945      45.545328     -10423.4        105            12023.119      0.009143176  
    106000  -10466.48       44.363464     -10422.116      106            12132.997      0.0091009856 
    107000  -10468.285      43.449326     -10424.836      107            12242.949      0.009094829  
    108000  -10466.463      45.091135     -10421.372      108            12353.089      0.0090794033 
    109000  -10468.375      45.093229     -10423.281      109            12462.84       0.0091115477 
    110000  -10469.472      46.042513     -10423.429      110            12573.22       0.0090595625 
    111000  -10466.837      45.724551     -10421.113      111            12683.004      0.0091087821 
    112000  -10467.246      43.838803     -10423.407      112            12793.849      0.0090216305 
    113000  -10468.646      44.412287     -10424.234      113            12905.026      0.008994683  
    114000  -10467.647      46.196486     -10421.451      114            13014.828      0.0091073124 
    115000  -10469.006      44.587243     -10424.418      115            13124.801      0.0090931476 
    116000  -10467.418      43.971728     -10423.446      116            13235.011      0.0090735763 
    117000  -10468.117      46.741253     -10421.376      117            13346.09       0.0090025705 
    118000  -10469.381      45.081928     -10424.299      118            13457.116      0.0090069102 
    119000  -10467.457      44.958811     -10422.498      119            13568.115      0.0090091022 
    120000  -10467.703      43.325865     -10424.377      120            13678.795      0.0090350688 
    121000  -10467.524      44.468784     -10423.055      121            13789.344      0.0090457793 
    122000  -10470.992      44.625788     -10426.367      122            13900.459      0.0089996622 
    123000  -10467.036      45.246005     -10421.79       123            14011.962      0.0089683738 
    124000  -10467.973      45.079027     -10422.894      124            14123.151      0.0089937139 
    125000  -10466.351      44.853578     -10421.498      125            14233.935      0.0090265329 
    126000  -10466.447      44.083246     -10422.363      126            14344.89       0.0090126461 
    127000  -10469.135      43.742313     -10425.393      127            14455.446      0.0090451999 
    128000  -10467.606      44.897775     -10422.709      128            14566.981      0.0089657701 
    129000  -10469.324      44.838922     -10424.485      129            14678.888      0.0089360321 
    130000  -10467.187      45.375199     -10421.812      130            14790.992      0.008920287  
    131000  -10467.897      42.74446      -10425.153      131            14902.097      0.0090005087 
    132000  -10468.458      43.664089     -10424.794      132            15014.427      0.0089023491 
    133000  -10466.462      46.480492     -10419.981      133            15127.55       0.0088399193 
    134000  -10468.755      44.871712     -10423.883      134            15240.149      0.0088810645 
    135000  -10468.211      46.017972     -10422.193      135            15352.317      0.0089152414 
    136000  -10468.845      43.369596     -10425.475      136            15463.256      0.0090139075 
    137000  -10467.39       45.015014     -10422.375      137            15574.332      0.0090028796 
    138000  -10468.54       43.129144     -10425.411      138            15686.381      0.0089246647 
    139000  -10468.235      45.539045     -10422.696      139            15799.008      0.0088788536 
    140000  -10469.098      44.091522     -10425.006      140            15912.03       0.0088478058 
    141000  -10468.962      45.875691     -10423.086      141            16026.793      0.0087135972 
    142000  -10471.553      44.96151      -10426.591      142            16139.507      0.0088720711 
    143000  -10469.2        46.54464      -10422.656      143            16253.714      0.0087560079 
    144000  -10469.193      44.698451     -10424.495      144            16366.204      0.0088896419 
    145000  -10468.695      46.19121      -10422.504      145            16479.133      0.0088551755 
    146000  -10471.289      44.919865     -10426.37       146            16590.835      0.0089523482 
    147000  -10468.575      45.0072       -10423.567      147            16702.253      0.0089752431 
    148000  -10468.392      44.620838     -10423.771      148            16813.421      0.0089953805 
    149000  -10468.525      44.829008     -10423.696      149            16924.56       0.0089977709 
    150000  -10468.526      43.913465     -10424.613      150            17035.803      0.0089892877 
    151000  -10468.129      45.742517     -10422.386      151            17146.311      0.0090491173 
    152000  -10470.569      45.54482      -10425.024      152            17257.439      0.008998662  
    153000  -10470.217      43.105211     -10427.112      153            17367.604      0.0090772622 
    154000  -10469.642      45.317533     -10424.324      154            17477.906      0.0090660327 
    155000  -10469.484      42.936274     -10426.548      155            17589.015      0.0090001917 
    156000  -10470.584      44.947422     -10425.636      156            17699.365      0.0090620262 
    157000  -10470.068      45.879433     -10424.188      157            17810.438      0.0090031098 
    158000  -10470.167      44.343731     -10425.823      158            17921.239      0.0090252428 
    159000  -10467.933      43.732219     -10424.201      159            18031.973      0.0090305938 
    160000  -10470.562      44.487382     -10426.075      160            18142.043      0.0090851438 
    161000  -10468.876      45.749002     -10423.127      161            18252.286      0.0090708518 
    162000  -10469.421      44.976074     -10424.445      162            18362.616      0.0090637412 
    163000  -10468.655      44.556906     -10424.099      163            18472.281      0.009118679  
    164000  -10469.574      45.246646     -10424.328      164            18582.568      0.0090672842 
    165000  -10469.924      41.889611     -10428.034      165            18692.708      0.0090792838 
    166000  -10468.402      45.380024     -10423.021      166            18803.427      0.0090319385 
    167000  -10467.73       44.55603      -10423.174      167            18913.7        0.0090683603 
    168000  -10469.991      43.496257     -10426.494      168            19023.634      0.0090963771 
    169000  -10467.867      44.324192     -10423.543      169            19134.389      0.0090289338 
    170000  -10471.093      42.632623     -10428.46       170            19243.807      0.0091392449 
    171000  -10469.606      45.740314     -10423.866      171            19354.028      0.0090727111 
    172000  -10468.383      45.58601      -10422.797      172            19464.234      0.0090738938 
    173000  -10469.812      43.606368     -10426.206      173            19574.688      0.0090535774 
    174000  -10466.583      43.994558     -10422.589      174            19685.316      0.0090392697 
    175000  -10471.258      45.530156     -10425.727      175            19796.504      0.008993793  
    176000  -10467.877      44.082762     -10423.794      176            19906.886      0.0090594121 
    177000  -10467.319      44.04981      -10423.269      177            20017.91       0.009007126  
    178000  -10468.648      45.853914     -10422.794      178            20129.328      0.0089751805 
    179000  -10468.567      45.334242     -10423.233      179            20239.669      0.0090628058 
    180000  -10471.138      45.255552     -10425.883      180            20350.208      0.0090465917 
    181000  -10469.653      45.795276     -10423.858      181            20460.548      0.0090629283 
    182000  -10469.831      42.854085     -10426.977      182            20571.147      0.009041627  
    183000  -10470.312      46.131773     -10424.18       183            20682.285      0.008997839  
    184000  -10468.968      45.532629     -10423.435      184            20792.82       0.0090469218 
    185000  -10468.904      44.07948      -10424.824      185            20903.526      0.0090328969 
    186000  -10469.256      45.684169     -10423.572      186            21014.914      0.0089776215 
    187000  -10468.359      41.969091     -10426.39       187            21124.934      0.0090892577 
    188000  -10466.588      44.522693     -10422.066      188            21235.722      0.009026282  
    189000  -10470.066      44.784464     -10425.281      189            21346.026      0.0090658672 
    190000  -10470.619      44.483731     -10426.135      190            21456.534      0.0090491351 
    191000  -10468.134      44.767709     -10423.366      191            21567.507      0.0090111663 
    192000  -10473.161      44.249141     -10428.912      192            21677.916      0.0090572498 
    193000  -10468.454      44.84394      -10423.61       193            21789.179      0.0089876917 
    194000  -10470.941      43.584999     -10427.356      194            21900.647      0.0089711647 
    195000  -10469.129      43.436693     -10425.692      195            22011.451      0.0090249895 
    196000  -10468.63       45.022653     -10423.607      196            22122.42       0.0090115059 
    197000  -10470.044      46.544472     -10423.499      197            22233.414      0.0090095284 
    198000  -10467.631      46.200336     -10421.43       198            22345.991      0.0088827483 
    199000  -10469.874      44.926301     -10424.948      199            22457.513      0.008966834  
    200000  -10467.907      46.441673     -10421.465      200            22568.381      0.0090197357 
    201000  -10469.636      45.364065     -10424.272      201            22679.193      0.0090243678 
    202000  -10469.91       44.515389     -10425.395      202            22790.798      0.0089601319 
    203000  -10468.195      46.123326     -10422.072      203            22901.761      0.0090119936 
    204000  -10468.671      44.047215     -10424.624      204            23013.017      0.0089882848 
    205000  -10467.307      44.441912     -10422.865      205            23125.279      0.0089077386 
    206000  -10468.828      43.401388     -10425.427      206            23235.842      0.0090446405 
    207000  -10469.038      44.662801     -10424.375      207            23346.334      0.009050398  
    208000  -10469.039      44.48438      -10424.555      208            23456.142      0.0091067818 
    209000  -10470.401      44.485709     -10425.915      209            23566.936      0.0090258333 
    210000  -10469.199      43.92317      -10425.275      210            23677.408      0.0090520504 
    211000  -10469.14       43.578724     -10425.561      211            23788.471      0.0090038809 
    212000  -10467.583      46.284542     -10421.298      212            23899.635      0.0089957321 
    213000  -10469.739      44.329698     -10425.409      213            24009.813      0.0090762225 
    214000  -10469.525      43.071968     -10426.454      214            24120.545      0.0090308043 
    215000  -10469.68       45.555101     -10424.125      215            24230.5        0.0090945994 
    216000  -10470.529      44.954547     -10425.575      216            24341.197      0.0090336902 
    217000  -10469.081      44.633796     -10424.447      217            24451.939      0.009030029  
    218000  -10467.968      45.421427     -10422.547      218            24562.482      0.0090462321 
    219000  -10471.357      44.974174     -10426.383      219            24672.677      0.0090748119 
    220000  -10468.903      44.61146      -10424.291      220            24783.77       0.009001451  
    221000  -10469.86       44.074449     -10425.786      221            24894.001      0.0090719122 
    222000  -10469.131      44.856699     -10424.274      222            25004.192      0.0090751384 
    223000  -10469.06       43.735534     -10425.324      223            25114.403      0.0090734485 
    224000  -10470.242      44.406409     -10425.836      224            25225.257      0.0090208967 
    225000  -10468.015      44.546273     -10423.469      225            25336.177      0.009015538  
    226000  -10469.466      43.800011     -10425.666      226            25447.711      0.0089658168 
    227000  -10467.697      45.139087     -10422.558      227            25559.728      0.0089272299 
    228000  -10468.201      43.75655      -10424.444      228            25671.044      0.008983427  
    229000  -10471.286      43.388984     -10427.897      229            25783.026      0.008930049  
    230000  -10469.153      45.07609      -10424.077      230            25894.138      0.0089999006 
    231000  -10469.729      44.582948     -10425.146      231            26006.601      0.0088917974 
    232000  -10468.295      44.383574     -10423.911      232            26118.555      0.0089322813 
    233000  -10469.221      44.520081     -10424.701      233            26230.634      0.0089222403 
    234000  -10469.883      44.370955     -10425.512      234            26342.244      0.0089597765 
    235000  -10469.65       44.437632     -10425.213      235            26454.535      0.0089054922 
    236000  -10470.263      45.750533     -10424.513      236            26566.383      0.0089406984 
    237000  -10467.528      45.285898     -10422.243      237            26679.048      0.0088758497 
    238000  -10467.111      42.169753     -10424.941      238            26790.933      0.0089377531 
    239000  -10469.201      46.479767     -10422.721      239            26904.45       0.0088092353 
    240000  -10468.523      45.130882     -10423.393      240            27016.715      0.0089074966 
    241000  -10471.042      44.135963     -10426.906      241            27129.645      0.0088550141 
    242000  -10469.02       45.306354     -10423.714      242            27242.915      0.0088285008 
    243000  -10470.341      43.65134      -10426.69       243            27354.617      0.0089523794 
    244000  -10468.65       44.404263     -10424.246      244            27467.19       0.0088831677 
    245000  -10469.104      43.374688     -10425.729      245            27578.822      0.0089579829 
    246000  -10468.354      43.849804     -10424.505      246            27692.382      0.0088059096 
    247000  -10469.281      43.685282     -10425.596      247            27805.021      0.0088779452 
    248000  -10467.356      44.167013     -10423.189      248            27918.58       0.0088059757 
    249000  -10469.483      45.733882     -10423.749      249            28030.202      0.0089587759 
    250000  -10471.514      43.799632     -10427.715      250            28143.373      0.0088362164 
    251000  -10469.73       45.557828     -10424.172      251            28256          0.0088788299 
    252000  -10470.335      44.132542     -10426.202      252            28369.94       0.0087765927 
    253000  -10468.288      46.344874     -10421.944      253            28483.141      0.0088338038 
    254000  -10469.484      43.721072     -10425.763      254            28596.028      0.0088584027 
    255000  -10468.04       43.948403     -10424.092      255            28708.874      0.0088616505 
    256000  -10468.803      43.321507     -10425.481      256            28821.15       0.0089066437 
    257000  -10468.22       44.877986     -10423.342      257            28935.438      0.0087498413 
    258000  -10469.043      43.809282     -10425.234      258            29047.511      0.0089227004 
    259000  -10468.883      46.186956     -10422.696      259            29160.202      0.0088738483 
    260000  -10470.941      44.337447     -10426.604      260            29271.427      0.0089907841 
    261000  -10469.762      45.517733     -10424.244      261            29383.944      0.0088875465 
    262000  -10471.152      44.464597     -10426.688      262            29495.806      0.0089396289 
    263000  -10470.229      46.462579     -10423.767      263            29608.261      0.008892405  
    264000  -10468.718      44.12891      -10424.589      264            29720.553      0.0089053283 
    265000  -10468.738      45.199454     -10423.539      265            29832.978      0.0088948722 
    266000  -10468.425      44.280427     -10424.144      266            29944.658      0.0089541291 
    267000  -10468.806      41.73309      -10427.073      267            30055.244      0.0090427114 
    268000  -10468.74       44.418378     -10424.322      268            30166.033      0.0090261701 
    269000  -10471.293      45.739571     -10425.554      269            30277.604      0.0089629264 
    270000  -10467.56       44.721655     -10422.838      270            30388.794      0.0089936206 
    271000  -10469.301      44.642211     -10424.658      271            30499.51       0.0090320967 
    272000  -10471.228      43.88717      -10427.341      272            30611.335      0.0089425322 
    273000  -10468.676      45.067118     -10423.609      273            30722.01       0.0090354954 
    274000  -10470.224      44.634297     -10425.589      274            30833.457      0.0089729044 
    275000  -10470.07       46.001389     -10424.069      275            30944.272      0.0090240038 
    276000  -10471.349      44.83801      -10426.511      276            31054.811      0.0090466269 
    277000  -10468.095      47.376453     -10420.719      277            31166.682      0.0089388135 
    278000  -10470.377      44.757817     -10425.619      278            31277.688      0.009008525  
    279000  -10469.003      47.18083      -10421.822      279            31389.338      0.0089565521 
    280000  -10467.95       44.664535     -10423.285      280            31502.054      0.0088718947 
    281000  -10471.726      43.518778     -10428.207      281            31614.26       0.0089121798 
    282000  -10469.928      45.2144       -10424.714      282            31726.671      0.008895944  
    283000  -10468.914      45.475574     -10423.438      283            31838.327      0.0089560694 
    284000  -10471.301      44.620224     -10426.68       284            31950.7        0.0088989298 
    285000  -10468.465      44.632895     -10423.833      285            32063.088      0.0088977127 
    286000  -10470.911      45.150579     -10425.761      286            32175.162      0.008922692  
    287000  -10470.59       45.852566     -10424.738      287            32287.454      0.0089053958 
    288000  -10470.645      44.308311     -10426.337      288            32399.123      0.0089549918 
    289000  -10470.457      44.818732     -10425.638      289            32510.904      0.0089460787 
    290000  -10469.167      47.045309     -10422.122      290            32622.958      0.0089242527 
    291000  -10469.703      44.428708     -10425.274      291            32734.752      0.0089450141 
    292000  -10470.702      41.709829     -10428.992      292            32846.423      0.0089548707 
    293000  -10469.527      44.693162     -10424.834      293            32957.42       0.0090093072 
    294000  -10468.785      44.101669     -10424.684      294            33069.007      0.0089615606 
    295000  -10469.935      45.373118     -10424.562      295            33180.58       0.0089627759 
    296000  -10468.915      45.777991     -10423.137      296            33292.29       0.0089517621 
    297000  -10470.989      43.431592     -10427.558      297            33403.056      0.0090280042 
    298000  -10469.147      44.426045     -10424.721      298            33514.185      0.0089985919 
    299000  -10471.197      43.682685     -10427.514      299            33625.285      0.00900088   
    300000  -10467.589      43.932189     -10423.656      300            33736.466      0.0089943302 
    301000  -10470.938      43.714665     -10427.223      301            33848.274      0.0089439085 
    302000  -10471.477      44.694285     -10426.783      302            33960.306      0.0089260272 
    303000  -10469.417      44.511341     -10424.906      303            34072.042      0.0089496289 
    304000  -10469.579      43.122295     -10426.457      304            34183.907      0.0089394151 
    305000  -10469.897      45.087049     -10424.81       305            34296.062      0.008916223  
    306000  -10470.297      43.289653     -10427.007      306            34408.454      0.0088973943 
    307000  -10470.949      45.205035     -10425.744      307            34521.217      0.0088681569 
    308000  -10469.085      42.510082     -10426.574      308            34633.028      0.0089436892 
    309000  -10470.244      45.164201     -10425.079      309            34744.822      0.0089450166 
    310000  -10472.772      46.358775     -10426.413      310            34855.92       0.0090010521 
    311000  -10470.397      44.723463     -10425.673      311            34968.229      0.0089040328 
    312000  -10470.811      45.889468     -10424.921      312            35078.963      0.0090306339 
    313000  -10469.743      46.551675     -10423.192      313            35190.252      0.0089856063 
    314000  -10468.82       44.085541     -10424.734      314            35301.131      0.0090188252 
    315000  -10467.999      43.015815     -10424.984      315            35412.012      0.0090187209 
    316000  -10470.105      46.861908     -10423.243      316            35522.813      0.0090251502 
    317000  -10470.317      42.842734     -10427.474      317            35633.759      0.0090134272 
    318000  -10469.968      45.96082      -10424.007      318            35745.361      0.0089603972 
    319000  -10469.489      45.541951     -10423.947      319            35855.685      0.0090642363 
    320000  -10471.674      45.762456     -10425.912      320            35967.094      0.0089759008 
    321000  -10467.496      44.204344     -10423.292      321            36077.754      0.0090367157 
    322000  -10468.915      43.416935     -10425.498      322            36189.985      0.0089101679 
    323000  -10472.017      45.457102     -10426.56       323            36301.232      0.0089889905 
    324000  -10469.752      46.122091     -10423.63       324            36412.881      0.0089567023 
    325000  -10469.176      42.306549     -10426.87       325            36524.876      0.0089289182 
    326000  -10469.043      45.040214     -10424.003      326            36637.178      0.008904591  
    327000  -10470.501      45.41572      -10425.085      327            36750.126      0.0088536394 
    328000  -10469.783      44.774368     -10425.009      328            36862.479      0.0089005183 
    329000  -10468.944      44.713221     -10424.231      329            36974.85       0.008899084  
    330000  -10469.15       42.99222      -10426.158      330            37086.67       0.0089429294 
    331000  -10468.871      45.322088     -10423.549      331            37198.929      0.0089079607 
    332000  -10469.302      43.228016     -10426.074      332            37310.275      0.0089810541 
    333000  -10471.187      46.799161     -10424.388      333            37422.639      0.0088996562 
    334000  -10468.891      43.522847     -10425.368      334            37533.952      0.0089836378 
    335000  -10468.813      43.819534     -10424.994      335            37644.776      0.0090233483 
    336000  -10467.456      45.84987      -10421.606      336            37755.812      0.0090060876 
    337000  -10469.939      44.839411     -10425.1        337            37867.171      0.00897996   
    338000  -10468.876      45.160582     -10423.716      338            37979.356      0.0089138471 
    339000  -10471.69       44.880629     -10426.809      339            38090.535      0.0089944474 
    340000  -10467.647      43.903074     -10423.744      340            38201.113      0.0090434153 
    341000  -10469.314      44.692455     -10424.622      341            38311.996      0.0090185158 
    342000  -10470.128      43.923415     -10426.205      342            38422.848      0.0090210179 
    343000  -10469.665      45.397579     -10424.268      343            38534.88       0.0089260479 
    344000  -10468.547      44.364502     -10424.183      344            38646.196      0.0089834359 
    345000  -10468.329      44.16497      -10424.164      345            38757.02       0.0090233241 
    346000  -10470.804      43.34369      -10427.461      346            38868.221      0.0089927512 
    347000  -10469.199      45.726569     -10423.473      347            38979.109      0.00901805   
    348000  -10468.685      43.245299     -10425.44       348            39089.22       0.009081785  
    349000  -10469.146      46.390094     -10422.756      349            39199.409      0.0090753273 
    350000  -10470.302      43.854583     -10426.447      350            39309.087      0.0091175988 
    351000  -10468.243      45.205529     -10423.038      351            39418.305      0.0091559507 
    352000  -10468.162      43.052362     -10425.11       352            39528.122      0.0091061033 
    353000  -10469.777      46.498537     -10423.278      353            39637.604      0.0091339162 
    354000  -10469.236      42.948714     -10426.287      354            39748.349      0.009029711  
    355000  -10467.583      43.744967     -10423.838      355            39858.145      0.0091078081 
    356000  -10471.084      43.0811       -10428.003      356            39967.956      0.0091065333 
    357000  -10467.9        45.115945     -10422.784      357            40077.971      0.0090897004 
    358000  -10469.645      44.330032     -10425.315      358            40188.19       0.009072864  
    359000  -10469.984      44.986316     -10424.998      359            40298.225      0.0090879991 
    360000  -10469.015      45.079999     -10423.935      360            40408.761      0.0090467931 
    361000  -10471.845      45.775226     -10426.07       361            40519.031      0.0090686877 
    362000  -10469.472      45.381488     -10424.091      362            40629.805      0.0090274233 
    363000  -10471.332      45.038357     -10426.293      363            40740.08       0.0090681992 
    364000  -10469.753      46.377352     -10423.376      364            40850.523      0.0090544242 
    365000  -10469.839      43.162476     -10426.677      365            40961.51       0.0090101046 
    366000  -10470.398      47.625062     -10422.773      366            41071.696      0.0090755337 
    367000  -10469.317      45.419354     -10423.898      367            41182.339      0.0090380787 
    368000  -10470.216      44.394249     -10425.822      368            41292.541      0.0090742289 
    369000  -10468.347      44.649775     -10423.698      369            41403.179      0.0090385483 
    370000  -10470.814      43.598125     -10427.216      370            41513.236      0.009086181  
    371000  -10469.243      45.594616     -10423.648      371            41624.761      0.0089665724 
    372000  -10469.654      42.455903     -10427.198      372            41734.96       0.0090744942 
    373000  -10468.553      44.416804     -10424.136      373            41845.029      0.0090852318 
    374000  -10469.988      43.25727      -10426.73       374            41955.242      0.0090733277 
    375000  -10468.235      43.853197     -10424.382      375            42066.785      0.0089651302 
    376000  -10470.118      42.181972     -10427.936      376            42177.938      0.0089966093 
    377000  -10469.817      44.621936     -10425.195      377            42288.006      0.0090853294 
    378000  -10470.107      43.173463     -10426.933      378            42399.427      0.008974997  
    379000  -10468.877      45.945852     -10422.931      379            42509.609      0.0090758132 
    380000  -10470.906      45.794591     -10425.111      380            42620.294      0.0090346896 
    381000  -10468.999      44.064917     -10424.934      381            42730.442      0.0090786756 
    382000  -10471.027      43.006692     -10428.02       382            42841.359      0.0090157538 
    383000  -10468.914      44.378383     -10424.536      383            42952.044      0.0090346355 
    384000  -10471.038      45.439467     -10425.598      384            43062.218      0.0090765954 
    385000  -10469.153      45.254645     -10423.899      385            43172.726      0.009049075  
    386000  -10471.884      41.614039     -10430.27       386            43285.019      0.0089053031 
    387000  -10468.79       43.981562     -10424.809      387            43399.013      0.0087723706 
    388000  -10470.861      43.932521     -10426.928      388            43509.599      0.0090427217 
    389000  -10469.078      44.930363     -10424.148      389            43620.333      0.0090306748 
    390000  -10470.061      44.341398     -10425.72       390            43730.58       0.0090705856 
    391000  -10467.891      43.482351     -10424.408      391            43843.267      0.0088740738 
    392000  -10470.159      42.480065     -10427.679      392            43957.527      0.0087520329 
    393000  -10469.001      44.955058     -10424.046      393            44071.256      0.0087927724 
    394000  -10470.243      44.199558     -10426.043      394            44184.126      0.0088597498 
    395000  -10469.19       45.02094      -10424.169      395            44296.724      0.0088812093 
    396000  -10469.03       43.250044     -10425.78       396            44411.411      0.0087193293 
    397000  -10470.692      45.345608     -10425.347      397            44526.721      0.0086723061 
    398000  -10470.927      43.642331     -10427.285      398            44641.988      0.0086755119 
    399000  -10469.286      43.021254     -10426.265      399            44757.734      0.0086396064 
    400000  -10470.614      42.589579     -10428.024      400            44874.125      0.0085917353 
    401000  -10469.301      42.463571     -10426.838      401            44992.673      0.0084353537 
    402000  -10469.93       46.301837     -10423.628      402            45110.598      0.0084799714 
    403000  -10468.079      44.000139     -10424.079      403            45231.605      0.0082640026 
    404000  -10469.724      43.667716     -10426.057      404            45350.857      0.0083855814 
    405000  -10467.547      43.545562     -10424.002      405            45470.111      0.0083854628 
    406000  -10470.106      44.077774     -10426.028      406            45589.261      0.008392796  
    407000  -10470.097      45.47937      -10424.618      407            45710.433      0.0082527466 
    408000  -10471.109      42.99827      -10428.111      408            45831.875      0.0082344034 
    409000  -10470.625      45.624372     -10425.001      409            45953.407      0.0082282932 
    410000  -10472.853      44.254229     -10428.599      410            46074.245      0.0082755273 
    411000  -10469.661      44.915409     -10424.746      411            46195.148      0.0082711061 
    412000  -10469.475      43.380891     -10426.094      412            46316.324      0.0082524386 
    413000  -10469.135      45.785677     -10423.349      413            46439.029      0.0081496506 
    414000  -10469.016      42.624949     -10426.391      414            46561.025      0.0081969691 
    415000  -10469.669      45.48291      -10424.186      415            46682.525      0.0082304302 
    416000  -10470.78       43.254255     -10427.525      416            46802.911      0.0083066214 
    417000  -10469.719      44.847115     -10424.872      417            46922.122      0.0083884783 
    418000  -10470.275      44.575863     -10425.699      418            47041.588      0.0083706037 
    419000  -10469.677      45.528349     -10424.149      419            47160.844      0.0083853121 
    420000  -10470.896      45.35904      -10425.537      420            47280.58       0.0083517492 
    421000  -10469.518      46.377734     -10423.14       421            47400.784      0.0083191866 
    422000  -10470.833      44.478372     -10426.355      422            47520.411      0.008359318  
    423000  -10468.775      44.481613     -10424.293      423            47641.4        0.0082651508 
    424000  -10471.751      45.670686     -10426.08       424            47762.365      0.0082668725 
    425000  -10469.962      45.832704     -10424.129      425            47881.797      0.008372981  
    426000  -10470.576      44.083965     -10426.492      426            48001.428      0.0083590309 
    427000  -10470.641      45.734778     -10424.906      427            48121.602      0.0083212814 
    428000  -10471.386      44.007632     -10427.378      428            48241.768      0.0083218312 
    429000  -10470.277      46.60723      -10423.67       429            48361.979      0.008318697  
    430000  -10469.871      44.707712     -10425.163      430            48484.325      0.0081735253 
    431000  -10471.083      46.282498     -10424.8        431            48605.787      0.0082330619 
    432000  -10470.228      43.535161     -10426.693      432            48725.558      0.0083492056 
    433000  -10469.002      43.90426      -10425.097      433            48844.836      0.008383777  
    434000  -10469.944      44.679356     -10425.265      434            48961.773      0.0085516436 
    435000  -10470.936      43.527816     -10427.408      435            49078.409      0.0085736592 
    436000  -10470.152      45.765146     -10424.387      436            49195.209      0.0085616777 
    437000  -10469.714      43.0995       -10426.615      437            49311.658      0.0085874562 
    438000  -10469.724      45.291695     -10424.432      438            49427.94       0.0085997375 
    439000  -10472.13       44.322174     -10427.808      439            49544.586      0.0085729685 
    440000  -10470.686      45.819693     -10424.866      440            49661.905      0.0085237775 
    441000  -10472.058      45.280648     -10426.777      441            49779.879      0.0084764175 
    442000  -10466.624      44.647508     -10421.977      442            49897.458      0.0085049353 
    443000  -10469.66       43.996911     -10425.663      443            50015.547      0.0084681752 
    444000  -10469.146      45.007307     -10424.138      444            50131.364      0.0086343723 
    445000  -10468.985      44.046837     -10424.938      445            50247.525      0.0086087152 
    446000  -10469.845      42.501412     -10427.344      446            50361.722      0.008756773  
    447000  -10468.364      45.692799     -10422.672      447            50474.905      0.0088352809 
    448000  -10470.624      43.932033     -10426.692      448            50590.901      0.0086209872 
    449000  -10469.414      45.153662     -10424.26       449            50706.817      0.0086269601 
    450000  -10469.94       44.225586     -10425.714      450            50821.262      0.0087378172 
    451000  -10468.776      45.199191     -10423.577      451            50936.927      0.0086456214 
    452000  -10469.322      44.69062      -10424.632      452            51053.356      0.0085889462 
    453000  -10471.483      43.914396     -10427.569      453            51170.515      0.0085353869 
    454000  -10470.882      46.253654     -10424.628      454            51283.507      0.0088502292 
    455000  -10469.999      45.679243     -10424.32       455            51398.356      0.0087070356 
    456000  -10470.406      44.179336     -10426.227      456            51512.8        0.0087378767 
    457000  -10469.095      44.930588     -10424.164      457            51628.091      0.0086737038 
    458000  -10472.45       44.811292     -10427.639      458            51741.485      0.008818838  
    459000  -10469.113      45.127383     -10423.986      459            51853.728      0.0089092469 
    460000  -10471.846      43.188698     -10428.658      460            51965.384      0.0089560794 
    461000  -10469.586      45.125655     -10424.461      461            52077.119      0.0089497429 
    462000  -10469.792      43.963958     -10425.828      462            52191.951      0.0087083901 
    463000  -10471.09       43.178026     -10427.912      463            52302.786      0.0090223714 
    464000  -10468.64       44.944251     -10423.696      464            52414.718      0.0089340542 
    465000  -10468.323      45.006804     -10423.316      465            52525.225      0.0090491772 
    466000  -10470.705      45.648363     -10425.057      466            52637.028      0.0089443297 
    467000  -10471.119      46.007701     -10425.111      467            52748.117      0.0090017985 
    468000  -10469.399      45.001408     -10424.397      468            52858.916      0.0090253152 
    469000  -10468.841      43.577157     -10425.264      469            52970.289      0.008978845  
    470000  -10471.943      43.567582     -10428.376      470            53080.254      0.0090937937 
    471000  -10469.776      45.425459     -10424.35       471            53190.31       0.0090862586 
    472000  -10471.846      44.243123     -10427.603      472            53300.52       0.0090736453 
    473000  -10468.805      43.620437     -10425.185      473            53410.549      0.0090884835 
    474000  -10468.399      44.414975     -10423.984      474            53520.547      0.0090910438 
    475000  -10469.618      45.17054      -10424.447      475            53631.954      0.008976159  
    476000  -10469.896      41.03361      -10428.862      476            53741.957      0.0090906302 
    477000  -10470.674      45.982154     -10424.692      477            53852.546      0.0090424682 
    478000  -10469.155      46.41387      -10422.742      478            53962.512      0.0090937357 
    479000  -10471.122      44.961673     -10426.161      479            54072.387      0.0091012523 
    480000  -10469.493      45.278707     -10424.215      480            54183.695      0.0089840642 
    481000  -10471.303      45.224708     -10426.078      481            54292.521      0.0091889746 
    482000  -10470.379      47.822999     -10422.556      482            54401.738      0.0091561461 
    483000  -10469.718      43.932372     -10425.785      483            54510.536      0.0091912863 
    484000  -10469.301      46.088608     -10423.212      484            54620.126      0.0091249006 
    485000  -10471.176      44.458516     -10426.717      485            54730.725      0.009041724  
    486000  -10467.281      44.093145     -10423.188      486            54840.694      0.0090934476 
    487000  -10469.761      42.325561     -10427.435      487            54951.381      0.0090344931 
    488000  -10470.707      46.325568     -10424.381      488            55060.694      0.0091480851 
    489000  -10470.456      44.583749     -10425.872      489            55172.303      0.0089597925 
    490000  -10468.57       46.076233     -10422.493      490            55282.81       0.0090491964 
    491000  -10469.299      43.810684     -10425.488      491            55395.892      0.0088431456 
    492000  -10467.436      47.217622     -10420.219      492            55507.407      0.0089674082 
    493000  -10470.848      44.672713     -10426.175      493            55621.237      0.008785075  
    494000  -10468.094      45.100642     -10422.994      494            55734.336      0.0088417625 
    495000  -10470.334      44.018106     -10426.315      495            55851.023      0.0085699402 
    496000  -10469.248      44.848445     -10424.4        496            55969.797      0.0084193605 
    497000  -10470.257      42.640157     -10427.617      497            56088.134      0.0084504324 
    498000  -10468.322      44.814662     -10423.508      498            56206.594      0.0084416688 
    499000  -10471.087      44.869935     -10426.217      499            56324.257      0.0084988584 
    500000  -10467.999      43.738405     -10424.261      500            56440.48       0.0086041432 
    501000  -10469.497      43.397719     -10426.1        501            56556.927      0.0085875888 
    502000  -10469.313      43.205687     -10426.107      502            56671.863      0.008700485  
    503000  -10470.432      44.327961     -10426.104      503            56789.432      0.0085056492 
    504000  -10469.264      45.52041      -10423.744      504            56904.439      0.0086951213 
    505000  -10468.967      44.602655     -10424.365      505            57021.61       0.0085345733 
    506000  -10469.414      43.257835     -10426.156      506            57135.185      0.0088047654 
    507000  -10469.12       45.707017     -10423.413      507            57251.175      0.0086214153 
    508000  -10470.375      44.315969     -10426.059      508            57365.225      0.00876805   
    509000  -10469.435      46.469696     -10422.965      509            57479.867      0.0087228318 
    510000  -10471.082      43.078525     -10428.004      510            57593.095      0.0088317452 
    511000  -10469.724      44.706759     -10425.017      511            57706.297      0.0088337862 
    512000  -10470.101      45.199583     -10424.902      512            57820.669      0.0087433922 
    513000  -10468.585      44.372576     -10424.212      513            57932.932      0.0089076002 
    514000  -10469.805      44.084438     -10425.72       514            58045.476      0.0088854555 
    515000  -10467.697      46.126569     -10421.571      515            58157.061      0.0089617535 
    516000  -10470.099      43.683999     -10426.415      516            58268.694      0.0089579751 
    517000  -10468.615      43.691833     -10424.923      517            58379.334      0.0090382601 
    518000  -10465.89       44.69338      -10421.197      518            58490.538      0.0089924793 
    519000  -10468.582      44.58005      -10424.002      519            58601.251      0.009032402  
    520000  -10469.631      41.96377      -10427.667      520            58712.046      0.0090256617 
    521000  -10469.545      45.413454     -10424.131      521            58822.995      0.0090131279 
    522000  -10468.681      43.954489     -10424.726      522            58934.586      0.0089613302 
    523000  -10468.362      43.809461     -10424.552      523            59045.549      0.0090120325 
    524000  -10468.092      44.622666     -10423.47       524            59156.578      0.0090066351 
    525000  -10471.041      44.087577     -10426.953      525            59267.356      0.0090270345 
    526000  -10466.207      42.427262     -10423.78       526            59379.224      0.0089391374 
    527000  -10469.957      43.845746     -10426.112      527            59489.992      0.0090278423 
    528000  -10469.044      45.791641     -10423.252      528            59602.847      0.0088609669 
    529000  -10469.446      43.606492     -10425.839      529            59713.973      0.0089987465 
    530000  -10466.423      44.021742     -10422.401      530            59827.56       0.0088038575 
    531000  -10468.319      43.703766     -10424.615      531            59939.539      0.008930224  
    532000  -10469.421      43.636826     -10425.784      532            60053.904      0.0087439445 
    533000  -10470.854      45.481736     -10425.372      533            60166.929      0.0088475935 
    534000  -10468.441      43.844327     -10424.597      534            60280.023      0.008842229  
    535000  -10469.831      45.484455     -10424.347      535            60394.427      0.0087409244 
    536000  -10470.999      44.285967     -10426.713      536            60508.919      0.0087342364 
    537000  -10469.81       45.433714     -10424.377      537            60624.541      0.0086488938 
    538000  -10468.888      44.589041     -10424.299      538            60739.249      0.0087177594 
    539000  -10468.941      44.695534     -10424.246      539            60855.571      0.0085968871 
    540000  -10470.725      45.72061      -10425.005      540            60969.518      0.0087760036 
    541000  -10469.028      45.576376     -10423.452      541            61084.8        0.0086743771 
    542000  -10468.704      44.987228     -10423.716      542            61197.156      0.0089002377 
    543000  -10469.511      45.894465     -10423.617      543            61312.796      0.0086475388 
    544000  -10470.273      42.538628     -10427.734      544            61428.872      0.0086150796 
    545000  -10469.462      45.724646     -10423.737      545            61548.005      0.0083939562 
    546000  -10470.426      48.872802     -10421.554      546            61665.273      0.0085274575 
    547000  -10469.445      44.444494     -10425          547            61784.757      0.0083693563 
    548000  -10465.511      46.427712     -10419.083      548            61904.14       0.0083763925 
    549000  -10470.125      44.02712      -10426.098      549            62024.178      0.0083307058 
    550000  -10469.678      43.860957     -10425.817      550            62145.541      0.0082397131 
    551000  -10467.129      41.271396     -10425.858      551            62267.094      0.0082268896 
    552000  -10469.169      43.341527     -10425.827      552            62389.382      0.0081773986 
    553000  -10469.402      47.296203     -10422.105      553            62511.337      0.0081997244 
    554000  -10469.245      43.95093      -10425.294      554            62634.336      0.0081301746 
    555000  -10469.718      46.344242     -10423.374      555            62756.831      0.0081635734 
    556000  -10470.781      42.165719     -10428.615      556            62880.239      0.0081032374 
    557000  -10467.747      44.460322     -10423.287      557            63003.455      0.0081158432 
    558000  -10469.168      42.810004     -10426.358      558            63126.8        0.0081073337 
    559000  -10469.096      44.625173     -10424.471      559            63249.636      0.0081408855 
    560000  -10468.688      46.139426     -10422.549      560            63371.144      0.0082299659 
    561000  -10470.728      44.743894     -10425.984      561            63492.417      0.008245827  
    562000  -10470.25       44.603541     -10425.646      562            63612.619      0.0083193653 
    563000  -10469.45       44.553413     -10424.897      563            63732.284      0.0083566117 
    564000  -10470.136      42.892661     -10427.244      564            63850.647      0.0084485748 
    565000  -10471.143      45.809035     -10425.334      565            63967.374      0.0085670161 
    566000  -10469.811      46.466756     -10423.344      566            64081.902      0.008731484  
    567000  -10468.665      43.875108     -10424.79       567            64196.538      0.0087232823 
    568000  -10470.084      45.637855     -10424.446      568            64310.639      0.0087641282 
    569000  -10471.332      43.284216     -10428.048      569            64427.791      0.0085359581 
    570000  -10471.334      45.121516     -10426.213      570            64544.686      0.0085547078 
    571000  -10469.146      44.964448     -10424.182      571            64661.588      0.0085541448 
    572000  -10471.735      45.297797     -10426.437      572            64782.691      0.0082574683 
    573000  -10469.307      45.841556     -10423.465      573            64903.897      0.0082503581 
    574000  -10469.863      45.599836     -10424.263      574            65026.006      0.0081894496 
    575000  -10470.043      44.797731     -10425.246      575            65147.015      0.0082638319 
    576000  -10468.648      44.622079     -10424.026      576            65267.641      0.008290097  
    577000  -10471.941      46.629561     -10425.311      577            65389.14       0.008230502  
    578000  -10469.833      45.474329     -10424.358      578            65510.096      0.0082674547 
    579000  -10471.424      46.752286     -10424.672      579            65629.701      0.0083608533 
    580000  -10469.893      43.822306     -10426.071      580            65748.495      0.00841792   
    581000  -10470.007      45.370562     -10424.637      581            65867.726      0.0083871055 
    582000  -10472.59       44.328028     -10428.262      582            65988.59       0.0082738038 
    583000  -10468.328      44.673616     -10423.654      583            66109.31       0.0082836    
    584000  -10468.95       42.378124     -10426.572      584            66227.931      0.0084301981 
    585000  -10468.843      44.817641     -10424.025      585            66346.446      0.0084377817 
    586000  -10470.225      43.117829     -10427.107      586            66466.016      0.0083632886 
    587000  -10468.86       44.00775      -10424.853      587            66584.082      0.0084698025 
    588000  -10469.451      44.601237     -10424.85       588            66702.602      0.0084374499 
    589000  -10470.469      43.034495     -10427.434      589            66822.851      0.0083160405 
    590000  -10469.668      45.584551     -10424.083      590            66943.316      0.0083012093 
    591000  -10470.935      43.438663     -10427.497      591            67062.913      0.008361373  
    592000  -10469.649      45.501197     -10424.147      592            67182.715      0.0083471193 
    593000  -10469.748      45.219903     -10424.528      593            67300.281      0.0085058301 
    594000  -10470.406      44.477298     -10425.928      594            67417.509      0.0085304473 
    595000  -10467.999      45.18183      -10422.817      595            67533.586      0.0086149386 
    596000  -10468.947      42.844719     -10426.102      596            67648.035      0.0087375022 
    597000  -10468.349      44.976569     -10423.373      597            67762.389      0.0087448    
    598000  -10468.031      42.038926     -10425.992      598            67875.042      0.0088768325 
    599000  -10469.183      45.051029     -10424.132      599            67988.053      0.0088486925 
    600000  -10471.749      44.081988     -10427.667      600            68102.185      0.0087617288 
    601000  -10469.486      43.089572     -10426.396      601            68216.269      0.0087655271 
    602000  -10470.199      44.01687      -10426.182      602            68331.591      0.0086713404 
    603000  -10469.347      45.989426     -10423.358      603            68446.821      0.0086783068 
    604000  -10471.39       45.533449     -10425.856      604            68564.25       0.0085157781 
    605000  -10467.839      43.857049     -10423.982      605            68680.32       0.0086154638 
    606000  -10471.82       44.429043     -10427.391      606            68795.543      0.0086788496 
    607000  -10468.869      43.531225     -10425.338      607            68911.238      0.0086434449 
    608000  -10466.627      44.649794     -10421.977      608            69025.7        0.0087364961 
    609000  -10469.937      44.897824     -10425.039      609            69142.32       0.0085748865 
    610000  -10469.191      44.774258     -10424.416      610            69256.762      0.0087380528 
    611000  -10469.796      42.292935     -10427.503      611            69371.143      0.0087426407 
    612000  -10468.501      44.759099     -10423.742      612            69484.061      0.0088560187 
    613000  -10472.584      43.723055     -10428.861      613            69596.688      0.0088788706 
    614000  -10469.787      44.778056     -10425.009      614            69708.312      0.0089586791 
    615000  -10470.199      46.18467      -10424.014      615            69820.895      0.0088823394 
    616000  -10470.315      44.572973     -10425.742      616            69933.026      0.0089180809 
    617000  -10469.879      43.924349     -10425.955      617            70043.748      0.0090316891 
    618000  -10469.256      43.966384     -10425.289      618            70155.082      0.0089819477 
    619000  -10470.908      44.361619     -10426.547      619            70265.95       0.0090197611 
    620000  -10471.334      45.05209      -10426.282      620            70377.898      0.0089327106 
    621000  -10468.5        47.399478     -10421.1        621            70488.003      0.0090821936 
    622000  -10468.65       43.266372     -10425.384      622            70599.377      0.0089787723 
    623000  -10469.267      43.184877     -10426.082      623            70709.634      0.0090697034 
    624000  -10468.501      45.893931     -10422.607      624            70820.23       0.0090419392 
    625000  -10469.998      45.604052     -10424.394      625            70930.773      0.0090462703 
    626000  -10471.152      44.582963     -10426.569      626            71042.294      0.0089668709 
    627000  -10469.7        45.488266     -10424.212      627            71152.731      0.0090549773 
    628000  -10468.814      43.254508     -10425.56       628            71263.095      0.0090609044 
    629000  -10469.85       44.319998     -10425.53       629            71373.772      0.0090353235 
    630000  -10467.622      43.159279     -10424.463      630            71484.892      0.0089992801 
    631000  -10467.489      43.998604     -10423.491      631            71596.01       0.0089994198 
    632000  -10469.303      44.402574     -10424.901      632            71706.966      0.009012606  
    633000  -10468.477      44.824933     -10423.652      633            71818.531      0.0089633882 
    634000  -10468.026      44.836904     -10423.189      634            71929.842      0.0089837998 
    635000  -10472.123      43.44336      -10428.68       635            72040.632      0.0090261323 
    636000  -10469.192      45.411247     -10423.78       636            72151.97       0.0089816613 
    637000  -10466.938      41.336125     -10425.602      637            72263.758      0.0089454589 
    638000  -10469.225      43.57936      -10425.646      638            72376.604      0.0088616319 
    639000  -10468.735      45.076677     -10423.658      639            72490.835      0.0087542533 
    640000  -10470.055      45.608413     -10424.447      640            72603.897      0.0088447026 
    641000  -10470.148      44.497632     -10425.651      641            72718.679      0.0087121647 
    642000  -10468.096      46.284075     -10421.812      642            72833.985      0.0086725094 
    643000  -10470.445      45.015173     -10425.43       643            72949.508      0.008656302  
    644000  -10470.488      44.621087     -10425.867      644            73065.909      0.0085910067 
    645000  -10470.243      44.174955     -10426.068      645            73181.428      0.0086565731 
    646000  -10468.304      43.438385     -10424.865      646            73297.262      0.0086330661 
    647000  -10469.479      44.36365      -10425.115      647            73412.433      0.0086827039 
    648000  -10470.961      44.114663     -10426.847      648            73525.214      0.0088668067 
    649000  -10468.404      45.148944     -10423.255      649            73636.62       0.0089761492 
    650000  -10470.009      42.815954     -10427.193      650            73748.595      0.0089305978 
    651000  -10468.837      44.590484     -10424.247      651            73860.542      0.0089327195 
    652000  -10470.289      43.549893     -10426.739      652            73972.208      0.0089553037 
    653000  -10468.339      43.376261     -10424.962      653            74083.359      0.0089967476 
    654000  -10469.577      44.956392     -10424.621      654            74193.938      0.0090433469 
    655000  -10468.646      45.781805     -10422.864      655            74304.372      0.0090551752 
    656000  -10471.283      44.90998      -10426.373      656            74415.491      0.0089993624 
    657000  -10468.99       42.995501     -10425.995      657            74525.931      0.0090546985 
    658000  -10471.618      44.965386     -10426.653      658            74637.036      0.0090004568 
    659000  -10469.941      44.719833     -10425.221      659            74748.426      0.00897746   
    660000  -10469.874      44.627923     -10425.246      660            74858.688      0.0090693351 
    661000  -10469.67       43.193396     -10426.476      661            74968.897      0.0090736596 
    662000  -10468.396      44.742481     -10423.653      662            75079.951      0.009004612  
    663000  -10470.624      45.49145      -10425.133      663            75190.952      0.009008961  
    664000  -10468.166      45.152675     -10423.014      664            75301.627      0.0090354316 
    665000  -10470.43       43.695933     -10426.734      665            75412.287      0.0090366914 
    666000  -10468.75       44.969035     -10423.781      666            75523.328      0.0090057004 
    667000  -10470.898      45.694258     -10425.204      667            75634.445      0.0089995157 
    668000  -10469.322      44.247381     -10425.075      668            75745.949      0.0089683434 
    669000  -10471.541      44.770361     -10426.771      669            75859.344      0.008818691  
    670000  -10470.737      44.456524     -10426.281      670            75971.41       0.008923331  
    671000  -10469.683      43.877266     -10425.806      671            76084.216      0.0088647913 
    672000  -10468.763      44.619705     -10424.144      672            76196.089      0.0089387175 
    673000  -10469.901      44.878171     -10425.022      673            76307.152      0.0090039047 
    674000  -10470.036      43.804223     -10426.232      674            76419.319      0.0089152723 
    675000  -10468.366      45.807775     -10422.558      675            76531.36       0.0089252975 
    676000  -10470.499      44.87009      -10425.629      676            76642.87       0.0089678039 
    677000  -10470.378      46.275489     -10424.103      677            76753.614      0.009029818  
    678000  -10469.047      45.160072     -10423.887      678            76863.927      0.0090651408 
    679000  -10471.046      43.959968     -10427.086      679            76975.453      0.0089664506 
    680000  -10470.742      45.670564     -10425.071      680            77085.269      0.0091061603 
    681000  -10470.221      44.213321     -10426.008      681            77194.999      0.0091133094 
    682000  -10471.197      43.819507     -10427.377      682            77304.853      0.0091029532 
    683000  -10469.482      44.124051     -10425.358      683            77414.876      0.0090890075 
    684000  -10470.308      44.027465     -10426.28       684            77525.192      0.0090648827 
    685000  -10468.061      45.577031     -10422.484      685            77636.617      0.0089746674 
    686000  -10470.087      46.273885     -10423.813      686            77747.025      0.0090573106 
    687000  -10471.517      44.457739     -10427.06       687            77857.52       0.0090501906 
    688000  -10468.895      45.493382     -10423.402      688            77968.197      0.0090352905 
    689000  -10468.212      44.986018     -10423.226      689            78078.67       0.009051994  
    690000  -10470.55       44.088078     -10426.462      690            78189.692      0.0090071815 
    691000  -10468.634      46.299916     -10422.334      691            78300.356      0.0090363749 
    692000  -10470.273      46.040809     -10424.232      692            78410.839      0.0090512085 
    693000  -10471.734      43.443884     -10428.29       693            78521.158      0.00906463   
    694000  -10469.208      44.786166     -10424.422      694            78632.23       0.0090030967 
    695000  -10470.972      45.285199     -10425.687      695            78743.549      0.0089832572 
    696000  -10466.976      45.192272     -10421.783      696            78854.599      0.0090049073 
    697000  -10469.562      45.091806     -10424.47       697            78967.274      0.0088751166 
    698000  -10471.639      44.009212     -10427.63       698            79078.211      0.0090141199 
    699000  -10468.762      44.659166     -10424.103      699            79189.69       0.0089702727 
    700000  -10470.284      42.561088     -10427.723      700            79302.058      0.008899327  
    701000  -10471.049      45.727843     -10425.321      701            79414.391      0.008902128  
    702000  -10470.641      45.293084     -10425.348      702            79526.123      0.0089499704 
    703000  -10468.952      44.764        -10424.188      703            79639.317      0.0088344176 
    704000  -10470.649      43.185674     -10427.463      704            79750.653      0.0089817944 
    705000  -10470.131      44.794972     -10425.336      705            79861.628      0.0090110248 
    706000  -10471.438      44.805732     -10426.632      706            79971.752      0.0090807045 
    707000  -10468.425      47.666086     -10420.759      707            80081.228      0.009134379  
    708000  -10469.519      43.171514     -10426.347      708            80190.498      0.0091517084 
    709000  -10470.049      44.986501     -10425.062      709            80299.38       0.0091842159 
    710000  -10472.04       44.536121     -10427.504      710            80408.448      0.0091685667 
    711000  -10469.327      44.607082     -10424.72       711            80518.274      0.0091053119 
    712000  -10470.74       43.714895     -10427.025      712            80628.145      0.0091015811 
    713000  -10469.385      45.538053     -10423.847      713            80737.396      0.0091532594 
    714000  -10469.642      44.007933     -10425.634      714            80846.33       0.0091799098 
    715000  -10468.693      44.579611     -10424.114      715            80955.136      0.0091906012 
    716000  -10469.688      42.495443     -10427.192      716            81065.335      0.0090745028 
    717000  -10468.87       45.082972     -10423.787      717            81175.074      0.009112585  
    718000  -10472.039      42.398666     -10429.64       718            81284.557      0.0091338245 
    719000  -10469.063      44.082304     -10424.981      719            81394.967      0.0090571797 
    720000  -10471.929      43.11499      -10428.814      720            81504.72       0.009111354  
    721000  -10469.694      45.174462     -10424.52       721            81614.657      0.0090961256 
    722000  -10470.805      44.787921     -10426.017      722            81724.621      0.0090938593 
    723000  -10469.111      44.064969     -10425.046      723            81834.973      0.0090619006 
    724000  -10471.933      44.006555     -10427.926      724            81945.329      0.0090615491 
    725000  -10469.72       45.168316     -10424.552      725            82055.359      0.0090884783 
    726000  -10470.317      43.832197     -10426.485      726            82165.819      0.0090530123 
    727000  -10469.793      45.605091     -10424.188      727            82276.9        0.0090025033 
    728000  -10470.068      45.558588     -10424.51       728            82387.577      0.009035246  
    729000  -10469.347      44.172987     -10425.174      729            82498.039      0.0090529202 
    730000  -10467.465      43.605183     -10423.86       730            82610.231      0.0089133146 
    731000  -10471.513      44.91519      -10426.598      731            82721.484      0.0089884856 
    732000  -10469.325      47.313445     -10422.012      732            82831.942      0.009053186  
    733000  -10470.263      44.483683     -10425.78       733            82943.154      0.0089918591 
    734000  -10468.623      46.147647     -10422.475      734            83053.626      0.0090521108 
    735000  -10471.795      45.027284     -10426.768      735            83164.542      0.0090158298 
    736000  -10468.283      44.582193     -10423.701      736            83274.634      0.0090832574 
    737000  -10469.889      44.353021     -10425.536      737            83385.19       0.0090452375 
    738000  -10469.786      45.926627     -10423.86       738            83495.047      0.0091027288 
    739000  -10469.156      44.341194     -10424.814      739            83605.685      0.0090384682 
    740000  -10468.13       45.943877     -10422.186      740            83715.583      0.009099359  
    741000  -10468.742      42.921437     -10425.821      741            83825.871      0.00906717   
    742000  -10467.715      44.394832     -10423.32       742            83935.893      0.0090890498 
    743000  -10471.099      45.274486     -10425.824      743            84046.665      0.0090276149 
    744000  -10468.969      45.015392     -10423.954      744            84157.732      0.009003515  
    745000  -10469.275      43.743145     -10425.532      745            84268.33       0.0090417522 
    746000  -10467.339      44.912222     -10422.426      746            84380.243      0.0089355432 
    747000  -10469.249      43.773173     -10425.475      747            84490.617      0.0090600918 
[...]
    888000  -10467.05       44.809206     -10422.241      888            100457.81      0.0085096145 
    889000  -10467.274      42.404658     -10424.869      889            100576.37      0.0084348584 
    890000  -10469.96       45.087096     -10424.873      890            100695.99      0.0083595513 
    891000  -10469.258      43.093765     -10426.164      891            100819.38      0.0081043662 
    892000  -10468.09       44.034067     -10424.056      892            100940.61      0.0082489807 
    893000  -10469.744      45.451732     -10424.293      893            101060.74      0.0083241548 
    894000  -10468.613      45.380587     -10423.232      894            101179.89      0.0083926943 
    895000  -10467.46       45.761313     -10421.699      895            101298.38      0.0084395811 
    896000  -10469.253      44.091578     -10425.162      896            101415.92      0.0085080004 
    897000  -10469.106      45.862952     -10423.243      897            101533.23      0.0085243785 
    898000  -10468.717      44.421955     -10424.295      898            101652.27      0.0084001688 
    899000  -10470.3        44.177213     -10426.122      899            101770.49      0.0084591306 
    900000  -10468.731      44.636974     -10424.094      900            101888.75      0.0084555462 
    901000  -10469.425      46.218453     -10423.207      901            102008.79      0.008331157  
    902000  -10467.053      45.529329     -10421.523      902            102128.77      0.0083341838 
    903000  -10468.856      44.819419     -10424.036      903            102248.16      0.0083761687 
    904000  -10470.441      43.765692     -10426.675      904            102366.14      0.0084756344 
    905000  -10469.766      45.60786      -10424.158      905            102484.29      0.0084643736 
    906000  -10469.52       42.538094     -10426.982      906            102603.6       0.0083811005 
    907000  -10469.922      45.7909       -10424.131      907            102720.95      0.0085218196 
    908000  -10469.932      42.049452     -10427.883      908            102838.58      0.0085010201 
    909000  -10468.413      45.659555     -10422.754      909            102955.91      0.0085232429 
    910000  -10468.675      47.10003      -10421.575      910            103073.22      0.008524362  
    911000  -10467.926      43.921812     -10424.004      911            103189.99      0.0085635674 
    912000  -10469.31       44.480863     -10424.829      912            103303.9       0.0087792427 
    913000  -10468.127      44.796306     -10423.331      913            103416.42      0.0088869293 
    914000  -10468.971      45.732003     -10423.239      914            103526.36      0.0090962773 
    915000  -10468.154      43.666547     -10424.487      915            103636.32      0.009093736  
    916000  -10467.728      45.595228     -10422.133      916            103745.89      0.0091265919 
    917000  -10470.391      43.28508      -10427.106      917            103855.4       0.0091315895 
    918000  -10468.372      44.652811     -10423.719      918            103966.66      0.0089881029 
    919000  -10468.178      43.347473     -10424.831      919            104076.56      0.0090993481 
    920000  -10468.75       44.521717     -10424.228      920            104187.17      0.0090406794 
    921000  -10470.415      44.853441     -10425.561      921            104297.06      0.0090996799 
    922000  -10467.387      45.527885     -10421.859      922            104406.9       0.0091041816 
    923000  -10469.629      44.124037     -10425.505      923            104516.75      0.0091034733 
    924000  -10468.464      44.688829     -10423.775      924            104627.86      0.009000569  
    925000  -10469.961      43.316132     -10426.645      925            104738.48      0.0090396155 
    926000  -10468.581      45.112552     -10423.469      926            104848.64      0.0090775811 
    927000  -10470.033      42.937306     -10427.096      927            104959.11      0.0090525253 
    928000  -10469.251      46.256852     -10422.994      928            105070.86      0.0089482235 
    929000  -10470.354      44.304144     -10426.05       929            105182.09      0.0089903859 
    930000  -10468.389      43.378447     -10425.01       930            105293.48      0.0089777237 
    931000  -10468.436      44.960688     -10423.475      931            105404.49      0.0090080434 
    932000  -10468.852      43.792912     -10425.059      932            105515.79      0.0089846339 
    933000  -10468.275      43.644254     -10424.631      933            105625.94      0.0090786541 
    934000  -10467.183      45.133139     -10422.05       934            105737.03      0.0090019965 
    935000  -10468.534      44.465351     -10424.069      935            105847.34      0.0090654556 
    936000  -10466.327      46.582429     -10419.745      936            105958.13      0.0090254757 
    937000  -10468.999      44.964127     -10424.035      937            106067.58      0.0091369855 
    938000  -10468.775      45.540021     -10423.235      938            106177.19      0.0091233002 
    939000  -10470.113      44.465754     -10425.648      939            106287.24      0.0090865681 
    940000  -10467.587      45.574132     -10422.012      940            106396.78      0.0091294107 
    941000  -10469.628      44.401564     -10425.226      941            106505.86      0.0091673909 
    942000  -10469.212      43.167175     -10426.045      942            106615.44      0.0091259363 
    943000  -10468.444      45.174453     -10423.27       943            106724.72      0.0091506604 
    944000  -10468.8        44.534374     -10424.266      944            106833.99      0.0091512702 
    945000  -10469.208      45.006431     -10424.201      945            106944.27      0.0090677375 
    946000  -10469.014      45.488471     -10423.526      946            107053.89      0.0091228702 
    947000  -10469.955      44.537697     -10425.418      947            107163.65      0.0091103063 
    948000  -10467.835      44.382171     -10423.452      948            107273.07      0.0091393899 
    949000  -10469.464      43.531809     -10425.933      949            107382.54      0.0091348353 
    950000  -10468.951      45.772831     -10423.179      950            107492.2       0.0091193545 
    951000  -10467.777      43.405714     -10424.371      951            107602.97      0.0090277074 
    952000  -10469.678      45.12244      -10424.556      952            107713.86      0.0090179119 
    953000  -10469.492      45.625082     -10423.867      953            107824.15      0.009066903  
    954000  -10468.49       44.319953     -10424.17       954            107934.65      0.0090495408 
    955000  -10469.275      45.91038      -10423.365      955            108044.72      0.0090851545 
    956000  -10471.404      45.23668      -10426.167      956            108155.55      0.0090227145 
    957000  -10468.425      45.762658     -10422.662      957            108264.92      0.0091433491 
    958000  -10469.428      44.871663     -10424.557      958            108374.2       0.0091508545 
    959000  -10467.984      44.841463     -10423.142      959            108484.17      0.0090940092 
    960000  -10469.621      42.075875     -10427.545      960            108593.66      0.0091326873 
    961000  -10468.728      45.170798     -10423.557      961            108702.91      0.0091532757 
    962000  -10467.962      42.121741     -10425.84       962            108813.14      0.00907219   
    963000  -10469.813      42.983832     -10426.829      963            108922.61      0.0091351825 
    964000  -10468.774      45.478673     -10423.295      964            109032.17      0.0091274058 
    965000  -10469.627      43.187144     -10426.44       965            109142.13      0.0090941327 
    966000  -10469.668      45.82521      -10423.843      966            109252.37      0.0090710436 
    967000  -10467.871      44.625446     -10423.246      967            109362.34      0.0090930545 
    968000  -10468.558      43.838989     -10424.719      968            109473.31      0.0090114624 
    969000  -10468.49       45.864707     -10422.625      969            109586.45      0.0088388305 
    970000  -10470.392      45.411299     -10424.981      970            109700.53      0.008765857  
    971000  -10471.354      45.067508     -10426.286      971            109815.29      0.0087134693 
    972000  -10469.731      44.026754     -10425.705      972            109931.99      0.0085689528 
    973000  -10469.6        47.01603      -10422.584      973            110048.84      0.0085584997 
    974000  -10469.152      44.478185     -10424.674      974            110166.67      0.0084869285 
    975000  -10468.143      43.702069     -10424.441      975            110284.86      0.0084606244 
    976000  -10468.047      44.549998     -10423.497      976            110404.66      0.0083471357 
    977000  -10467.471      45.345052     -10422.126      977            110524.79      0.0083243543 
    978000  -10468.928      43.898464     -10425.029      978            110644.35      0.0083644019 
    979000  -10468.978      46.987997     -10421.99       979            110765.69      0.0082409154 
    980000  -10470.201      45.35242      -10424.848      980            110884.31      0.0084303094 
    981000  -10470.204      46.24447      -10423.96       981            111003.86      0.0083647993 
    982000  -10470.13       44.380621     -10425.75       982            111123.66      0.0083475122 
    983000  -10470.199      45.072412     -10425.127      983            111244.29      0.0082895737 
    984000  -10468.47       42.750394     -10425.719      984            111363.8       0.0083671279 
    985000  -10470.786      42.86477      -10427.921      985            111484.26      0.0083018556 
    986000  -10468.457      43.929111     -10424.527      986            111604.59      0.0083100873 
    987000  -10468.036      43.698929     -10424.337      987            111725.99      0.008237587  
    988000  -10470.265      45.947782     -10424.317      988            111849.01      0.0081289558 
    989000  -10468.806      43.744509     -10425.061      989            111972.28      0.0081118893 
    990000  -10468.885      44.171151     -10424.714      990            112093.92      0.0082211205 
    991000  -10468.98       44.399284     -10424.581      991            112214.68      0.0082806424 
    992000  -10470.607      44.108722     -10426.498      992            112335.13      0.0083023098 
    993000  -10468.02       45.610197     -10422.41       993            112455.29      0.0083223654 
    994000  -10469.646      45.339611     -10424.307      994            112576.67      0.0082384798 
    995000  -10470.393      45.282614     -10425.11       995            112695.97      0.0083822425 
    996000  -10468.225      44.741921     -10423.483      996            112812.69      0.0085680037 
    997000  -10468.763      43.214429     -10425.548      997            112926.35      0.0087979008 
    998000  -10469.539      44.562983     -10424.976      998            113039.37      0.0088478912 
    999000  -10467.924      44.534548     -10423.39       999            113152.16      0.0088660269 
   1000000  -10469.182      44.334425     -10424.847      1000           113262.98      0.0090237924 
Loop time of 113263 on 16 procs for 1000000 steps with 1152 atoms

Performance: 0.763 ns/day, 31.462 hours/ns, 8.829 timesteps/s, 10.171 katom-step/s
99.3% CPU use with 16 MPI tasks x 1 OpenMP threads

MPI task timing breakdown:
Section |  min time  |  avg time  |  max time  |%varavg| %total
---------------------------------------------------------------
Pair    | 31938      | 33170      | 34093      | 389.4 | 29.29
Neigh   | 328.92     | 383.05     | 427.74     | 138.0 |  0.34
Comm    | 1898       | 2942.5     | 4272.3     |1396.8 |  2.60
Output  | 0.17968    | 0.19268    | 0.35972    |   9.8 |  0.00
Modify  | 76504      | 76759      | 76990      |  74.1 | 67.77
Other   |            | 9.03       |            |       |  0.01

Nlocal:             72 ave          74 max          70 min
Histogram: 1 0 0 0 0 14 0 0 0 1
Nghost:        918.312 ave         973 max         878 min
Histogram: 8 0 0 0 1 1 1 1 0 4
Neighs:              0 ave           0 max           0 min
Histogram: 16 0 0 0 0 0 0 0 0 0
FullNghs:       7286.5 ave        7643 max        5945 min
Histogram: 1 0 1 0 0 0 1 3 0 10

Total # of neighbors = 116584
Ave neighs/atom = 101.20139
Neighbor list builds = 2000000
Dangerous builds = 0

unfix temp

min_style cg
fix 0 all box/relax aniso 0 vmax 0.001
minimize 0 0 100000 100000
Per MPI rank memory allocation (min/avg/max) = 5.539 | 5.542 | 5.543 Mbytes
   Step         PotEng         KinEng         TotEng          Time           CPU           T/CPU     
   1000000  -10469.182      44.334425     -10424.847      1000           0              0            
   1001000  -10514.817      44.334425     -10470.483      1001           58.23938       0.017170512  
   1002000  -10514.861      44.334425     -10470.527      1002           129.94736      0.01394545   
   1003000  -10514.862      44.334425     -10470.527      1003           201.04057      0.01406604   
   1004000  -10514.862      44.334425     -10470.527      1004           272.81051      0.013933411  
   1005000  -10514.862      44.334425     -10470.527      1005           344.88624      0.013874296  
   1006000  -10514.862      44.334425     -10470.527      1006           416.84288      0.013897257  
   1007000  -10514.862      44.334425     -10470.527      1007           488.74097      0.013908576  
   1008000  -10514.862      44.334425     -10470.527      1008           559.47516      0.014137435  
   1009000  -10514.862      44.334425     -10470.527      1009           631.03329      0.013974653  
   1010000  -10514.862      44.334425     -10470.527      1010           701.10022      0.014272066  
   1011000  -10514.862      44.334425     -10470.527      1011           771.16183      0.014273152  
   1012000  -10514.862      44.334425     -10470.527      1012           841.17976      0.014282058  
   1013000  -10514.862      44.334425     -10470.527      1013           912.43265      0.014034518  
   1014000  -10514.862      44.334425     -10470.527      1014           982.18229      0.014336991  
   1015000  -10514.862      44.334425     -10470.527      1015           1052.1415      0.014294037  
   1016000  -10514.862      44.334425     -10470.527      1016           1122.0001      0.014314633  
   1017000  -10514.862      44.334425     -10470.527      1017           1192.5246      0.014179466  
   1018000  -10514.862      44.334425     -10470.527      1018           1262.8952      0.014210486  
   1019000  -10514.862      44.334425     -10470.527      1019           1332.935       0.014277601  
   1020000  -10514.862      44.334425     -10470.527      1020           1402.8354      0.014306072  
   1021000  -10514.862      44.334425     -10470.527      1021           1473.0615      0.014239707  
   1022000  -10514.862      44.334425     -10470.527      1022           1544.5902      0.0139804    
   1023000  -10514.862      44.334425     -10470.527      1023           1614.9028      0.014222215  
   1024000  -10514.862      44.334425     -10470.527      1024           1685.0345      0.014258887  
   1025000  -10514.862      44.334425     -10470.527      1025           1755.05        0.014282551  
   1026000  -10514.862      44.334425     -10470.527      1026           1824.8232      0.014332145  
   1027000  -10514.862      44.334425     -10470.527      1027           1894.5811      0.014335305  
   1028000  -10514.862      44.334425     -10470.527      1028           1964.6124      0.014279326  
   1029000  -10514.862      44.334425     -10470.527      1029           2034.6274      0.014282654  
   1030000  -10514.862      44.334425     -10470.527      1030           2105.3475      0.014140255  
   1031000  -10514.862      44.334425     -10470.527      1031           2175.5344      0.014247664  
   1032000  -10514.862      44.334425     -10470.527      1032           2245.8484      0.014221926  
   1033000  -10514.862      44.334425     -10470.527      1033           2316.5037      0.014153217  
   1034000  -10514.862      44.334425     -10470.527      1034           2386.8002      0.014225452  
   1035000  -10514.862      44.334425     -10470.527      1035           2456.9468      0.014255865  
   1036000  -10514.862      44.334425     -10470.527      1036           2527.1382      0.014246755  
   1037000  -10514.862      44.334425     -10470.527      1037           2597.8079      0.01415033   
   1038000  -10514.862      44.334425     -10470.527      1038           2667.8728      0.014272482  
   1039000  -10514.862      44.334425     -10470.527      1039           2738.0301      0.014253687  
   1040000  -10514.862      44.334425     -10470.527      1040           2807.8538      0.014321793  
   1041000  -10514.862      44.334425     -10470.527      1041           2876.3457      0.014600269  
   1042000  -10514.862      44.334425     -10470.527      1042           2944.9955      0.014566686  
   1043000  -10514.862      44.334425     -10470.527      1043           3013.865       0.014520206  
   1044000  -10514.862      44.334425     -10470.527      1044           3082.1836      0.014637315  
   1045000  -10514.862      44.334425     -10470.527      1045           3150.5347      0.014630322  
   1046000  -10514.862      44.334425     -10470.527      1046           3218.9874      0.01460863   
   1047000  -10514.862      44.334425     -10470.527      1047           3287.35        0.014627882  
   1048000  -10514.862      44.334425     -10470.527      1048           3355.711       0.014628222  
   1049000  -10514.862      44.334425     -10470.527      1049           3423.9551      0.014653297  
   1050000  -10514.862      44.334425     -10470.527      1050           3492.1661      0.014660384  
   1050198  -10514.862      44.334425     -10470.527      1050.198       3505.7336      0.014593681  
Loop time of 3505.73 on 16 procs for 50198 steps with 1152 atoms

99.3% CPU use with 16 MPI tasks x 1 OpenMP threads

Minimization stats:
  Stopping criterion = max force evaluations
  Energy initial, next-to-last, final = 
     -10469.1816491984  -10514.8616649479  -10514.8616649479
  Force two-norm initial, final = 66.369829 2.5823831e-11
  Force max component initial, final = 43.403519 1.5771956e-11
  Final line search alpha, max atom move = 1 1.5771956e-11
  Iterations, force evaluations = 50198 100001

MPI task timing breakdown:
Section |  min time  |  avg time  |  max time  |%varavg| %total
---------------------------------------------------------------
Pair    | 2750.3     | 3083.9     | 3356.7     | 300.8 | 87.97
Neigh   | 0.00054347 | 0.00065193 | 0.00071801 |   0.0 |  0.00
Comm    | 79.595     | 290.79     | 563.91     | 819.4 |  8.29
Output  | 0.0058609  | 0.0064635  | 0.01454    |   2.6 |  0.00
Modify  | 0          | 0          | 0          |   0.0 |  0.00
Other   |            | 131.1      |            |       |  3.74

Nlocal:             72 ave          74 max          70 min
Histogram: 1 0 0 0 0 14 0 0 0 1
Nghost:        922.938 ave         980 max         878 min
Histogram: 8 0 0 0 0 2 0 0 1 5
Neighs:              0 ave           0 max           0 min
Histogram: 16 0 0 0 0 0 0 0 0 0
FullNghs:      7317.88 ave        7674 max        5977 min
Histogram: 1 0 1 0 0 0 1 3 1 9

Total # of neighbors = 117086
Ave neighs/atom = 101.63715
Neighbor list builds = 2
Dangerous builds = 0

write_data data.CSRO
System init for write_data ...

print "all done"
all done
Total wall time: 32:26:08
