LAMMPS data file via write_data, version 22 Dec 2022, timestep = 5050197

1152 atoms
5 atom types

0.009030747756365556 14.770504503072862 xlo xhi
-0.012492342237598316 15.688556740205685 ylo yhi
0.05532543607265487 68.20842380840054 zlo zhi

Masses

1 180.948
2 92.9064
3 50.9415
4 95.94
5 183.84

Atoms # atomic

638 3 1.757413974443363 0.7820932025626718 2.3416637158802738 6 13 0
38 3 1.7241299165505843 3.4052124662280248 2.2891353407763115 6 12 0
10 3 11.739651537231204 6.88015366891434 6.791059609509183 6 12 0
627 3 4.052602148355353 1.6922446276394758 2.2069162371641955 6 13 0
23 2 6.629386910976828 2.643983726417386 2.135505091253888 6 12 0
610 2 9.292801681876144 0.8855505971469725 2.1014696619574793 6 13 0
6 3 9.274564116914442 3.555391894977437 2.107606601449358 6 12 0
591 3 11.769631819389646 1.742843630935494 2.1611101009990805 6 13 0
57 3 14.08206135655034 2.6086058354885115 2.2948780599913885 5 12 0
64 3 1.7584655841681118 5.925621045893885 2.272249157094626 6 12 0
15 3 12.941653248782037 6.01216892727956 4.507815858929037 6 12 0
54 3 14.088156517252552 5.157576433551955 6.79408198428064 5 12 0
51 3 6.696777936454897 7.5206739468926145 2.2331872242498125 6 12 0
45 3 4.127034149460794 4.2744356572705104 2.2595408195803173 6 12 0
46 3 4.187197122143852 6.742238680130742 2.249804230905701 6 12 0
24 3 6.658354560867948 5.188512015018961 2.1800533572734135 6 12 0
69 3 14.136067027863998 7.673776108543633 6.7849100161783 5 12 0
30 3 9.247882819676034 5.995185034605836 2.202166116713352 6 12 0
14 3 11.739224041589875 6.826259554281062 2.244938645636413 6 12 0
13 3 11.715565336126176 4.34575290038555 2.1920206369749473 6 12 0
58 3 14.113834481657673 5.123557358262781 2.255915003686476 5 12 0
71 3 14.178025044936607 7.638686452317203 2.260308086103946 5 12 0
39 3 2.823901514292566 2.5816495732731437 4.472786451885105 6 12 0
637 3 1.572965708459217 0.7322913357281225 6.7940700922660815 6 13 0
35 3 1.6239905885528265 3.4409182711274817 6.7984922295001295 6 12 0
636 3 0.5316394441888759 1.6676294621109735 4.54371254605279 6 13 0
628 2 5.2742573896852605 0.8334000202848014 4.434004277115655 6 13 0
18 3 5.268561504140592 3.5384567268886946 4.471150098382391 6 12 0
624 2 3.977704815233275 1.7205264361183674 6.778449549553866 6 13 0
19 2 6.614084655504401 2.68438944574352 6.771185850436779 6 12 0
608 2 7.946680930722042 1.7484490980796077 4.452789302835792 6 13 0
609 2 9.297338555618897 0.8178133686925214 6.8208718714238925 6 13 0
7 2 10.575199350445557 2.6816942177956253 4.426581179103105 6 12 0
3 2 9.297962228802733 3.5901236643019585 6.823791681482429 6 12 0
2 3 12.997876629920636 3.4803903770705396 4.500522044877117 6 12 0
588 2 11.847269903357013 1.7145054500747392 6.835937737257594 6 13 0
592 3 13.046630821292428 0.8042512801627675 4.538407674589033 6 13 0
53 3 14.17272341747561 2.5817896869005037 6.798739863312234 5 12 0
60 3 0.5547716601138702 6.799007376025917 4.520353909481817 6 12 0
40 3 2.8825649995524554 5.109661102566613 4.52353913951906 6 12 0
61 3 1.680006518844993 5.965381946089457 6.796475207136612 6 12 0
59 3 0.5125316381302918 4.272379387148049 4.52839314222702 6 12 0
66 3 2.9461278673860174 7.588490470233481 4.516852085794505 6 12 0
42 3 4.12997151098406 6.774291466139016 6.792754911900941 6 12 0
20 3 6.615246882261599 5.261044242341524 6.786970755264341 6 12 0
41 3 4.0426193328482904 4.371761277469247 6.7490681894392965 6 12 0
47 3 5.364521501383129 5.960821830867405 4.507968950317684 6 12 0
49 3 6.683789599042255 7.541365103839589 6.799615369290598 6 12 0
32 3 10.534891411503173 7.678333231151426 4.518871311294162 6 12 0
27 3 9.259097746133552 6.124730634482802 6.791201926761335 6 12 0
8 3 10.552959859432418 5.2907947108150015 4.4825531303574815 6 12 0
25 2 7.937631044361067 4.44488044567301 4.449425325239402 6 12 0
26 3 7.975678443073799 6.892231280178109 4.511390765111187 6 12 0
9 3 11.779392227396395 4.422641209061915 6.805090541303838 6 12 0
710 3 1.645068800538178 0.6974655743119197 11.275819286348087 6 13 0
36 3 2.749980556156522 2.550587919290815 9.069629343359765 6 12 0
110 3 1.6707987317971813 3.388715316982292 11.269638998489413 6 12 0
632 3 0.48921491212435664 1.6461934921306995 9.059522658599326 6 13 0
699 2 4.102127754689032 1.6480733866732218 11.377024446534412 6 13 0
625 2 5.320074812822914 0.7701741303474346 9.124723654548294 6 13 0
95 3 6.710088223552095 2.639475993819809 11.458044398843008 6 12 0
17 2 5.315284529393163 3.523721787161462 9.118651245053465 6 12 0
604 2 7.998199783064423 1.7438561706937243 9.173446883106843 6 13 0
682 2 9.302718724746132 0.8452043121944125 11.453045419801425 6 13 0
4 3 10.590546584656716 2.6780341649865096 9.171845104960326 6 12 0
78 3 9.27052848401449 3.520376486917504 11.408016648770355 6 12 0
663 3 11.777744629990044 1.717497113162588 11.334514892914118 6 13 0
589 3 13.021197113508036 0.7882556750411845 9.116382007954734 6 13 0
129 3 14.081228736348807 2.525339850778325 11.287038589227846 5 12 0
1 3 12.908416403432106 3.4583211988504767 9.094023614574972 6 12 0
37 3 2.8417000579783536 5.136659927980221 9.053412081358003 6 12 0
136 3 1.7137512532721766 5.955963011623666 11.269868686546776 6 12 0
56 3 0.5115686683004699 6.816919412956673 9.054066036515998 6 12 0
55 3 0.46514680407813164 4.2745560092790615 9.059796112356846 6 12 0
63 3 2.920045975402938 7.609156311583793 9.069512457808251 6 12 0
117 3 4.140205849649236 4.331791351286994 11.34056969617943 6 12 0
118 3 4.176708733730824 6.8079046355255635 11.297074401920254 6 12 0
96 3 6.685804282107925 5.17895922667001 11.381895850547515 6 12 0
43 3 5.380466080178179 6.062049361381882 9.06737618254285 6 12 0
123 3 6.696262035375806 7.653349865143065 11.318292697480784 6 12 0
22 3 7.979254272865822 6.928194375024518 9.079948082822037 6 12 0
21 2 7.9851033339356885 4.437698310487636 9.145806443705913 6 12 0
5 3 10.547175125641738 5.236444247480152 9.105947932449366 6 12 0
102 3 9.24104353090142 6.043282428338465 11.342700306810155 6 12 0
29 3 10.507395875508719 7.7088927714253 9.064467712911382 6 12 0
143 3 14.096535699190053 7.689714361962136 11.268279543381531 5 12 0
86 3 11.685460663215629 6.865979575865944 11.28170507643181 6 12 0
85 3 11.68945242603116 4.3151950607237115 11.320684400230377 6 12 0
130 3 14.074659672114786 5.125772926733215 11.27941201735195 5 12 0
11 3 12.897615421733708 6.016560458556485 9.061979706653531 6 12 0
709 3 1.7824805344845192 0.6913145342651742 15.550234211304215 6 13 0
111 3 2.941981909996355 2.4921938499048606 13.498820591926192 6 12 0
107 3 1.791135382848533 3.3229136672394 15.551778127124965 6 12 0
708 3 0.533437734292158 1.5941753163635566 13.431851610191735 6 13 0
696 3 4.245804976995163 1.579123591804059 15.582029384062535 6 13 0
700 3 5.441830802154585 0.7326603908146082 13.600131945008092 6 13 0
91 3 6.731794160118418 2.491132819265068 15.609979487810852 6 12 0
90 3 5.473634839849205 3.394112737579317 13.499499770803167 6 12 0
680 3 7.955394961861585 1.692686327625837 13.593597701011236 6 13 0
681 3 9.202203544990793 0.7552887119707276 15.62410391784091 6 13 0
79 3 10.479358915890959 2.5786149325399363 13.537768373970108 6 12 0
75 3 9.207688910419773 3.385764705886945 15.618669755033014 6 12 0
660 3 11.667911601080045 1.6291314210407069 15.596421085203719 6 13 0
664 3 12.901413187266805 0.7578905623862889 13.458526110746192 6 13 0
125 3 14.11022122632819 2.4694917660361044 15.562791819191778 5 12 0
74 3 12.89222089740737 3.391887388395961 13.46467835612672 6 12 0
138 3 2.9750074004607603 7.647464677610481 13.46009127334668 6 12 0
132 3 0.5407044478092949 6.814737166237898 13.43863758821268 6 12 0
131 3 0.5382529226309938 4.221511051613669 13.429591070335599 6 12 0
112 3 2.9810881782956518 5.085153164632013 13.43812900937747 6 12 0
133 3 1.786090528410857 5.933493227978061 15.562471579533621 6 12 0
113 3 4.25670781976715 4.203532717716658 15.56676537266957 6 12 0
114 3 4.237002253272604 6.795473429147612 15.581556273683605 6 12 0
92 3 6.725455849609915 5.094891874239905 15.590813386831687 6 12 0
119 3 5.465608804266404 5.9594754087490545 13.46603521004095 6 12 0
121 3 6.7009612214521574 7.675030200382814 15.591920084228475 6 12 0
97 3 7.978748113205212 4.286596101625687 13.50413598915844 6 12 0
99 3 9.19246237201384 5.98124457428663 15.597190862775337 6 12 0
98 3 7.956234453717416 6.838385863370231 13.473599639882377 6 12 0
80 3 10.452414688021607 5.155749564608709 13.488392469135722 6 12 0
104 3 10.432489193034025 7.70885435978454 13.44662745333012 6 12 0
81 3 11.666535914346825 4.245929979998795 15.597583703825764 6 12 0
126 3 14.107983041604456 5.086812738343874 15.570032277800676 5 12 0
87 3 12.885878914570766 5.987600916071008 13.449906600175634 6 12 0
82 3 11.650488098734396 6.8453836790671385 15.57750847797761 6 12 0
141 3 14.090224884939216 7.6913013632227845 15.568362925452183 5 12 0
782 3 1.800736843584454 0.7056571156534519 19.755555736244837 6 13 0
108 3 3.0374349978354864 2.4388004405889605 17.657301413092885 6 12 0
182 3 1.8051811261587332 3.318005268349134 19.76309609100488 6 12 0
704 3 0.5759823958837678 1.5771534423391615 17.655123948169297 6 13 0
771 3 4.261296216212807 1.5736911604460104 19.76654337573987 6 13 0
697 3 5.490652842650327 0.7019751905764501 17.6856156646699 6 13 0
167 3 6.721531793042708 2.454126159874264 19.783510210222744 6 12 0
89 3 5.497644049678426 3.324841272331314 17.67819785029198 6 12 0
676 3 7.9616769166923325 1.5970291132946726 17.703605210082145 6 13 0
754 3 9.178184144578317 0.7195219969492896 19.791745350829913 6 13 0
76 3 10.42682183082579 2.480280066685249 17.704638627345602 6 12 0
150 3 9.18508224401476 3.3371822052003273 19.79435069461682 6 12 0
735 3 11.645495909625453 1.5962646409997563 19.78480706605947 6 13 0
661 3 12.879282277632333 0.7251911658138103 17.67061267654114 6 13 0
201 3 14.108091986874147 2.459781136484643 19.768789873621063 5 12 0
73 3 12.887413733095578 3.3417054999225333 17.68447729501525 6 12 0
109 3 3.0293543378555423 5.055567858781612 17.669489235781104 6 12 0
208 3 1.7963667850049696 5.92898067321196 19.77938288955181 6 12 0
128 3 0.5621832282381986 6.806453162943156 17.68025980096012 6 12 0
127 3 0.5793936651845266 4.192848468444958 17.665435323510195 6 12 0
135 3 3.0082184489167476 7.666071558101696 17.69246700758606 6 12 0
189 3 4.260443072731695 4.1870286133242285 19.771666600915385 6 12 0
190 3 4.250509287189414 6.799378819053423 19.785963539911336 6 12 0
168 3 6.7190501762122015 5.06853960287167 19.78487513129513 6 12 0
115 3 5.4832781386978295 5.934700614678878 17.685451018103574 6 12 0
195 3 6.710654548749489 7.681363587752639 19.78775814783861 6 12 0
93 3 7.960427838923111 4.216267638105617 17.698866373726712 6 12 0
94 3 7.945522863369372 6.822807991185757 17.691675850102218 6 12 0
77 3 10.422835560077614 5.096179773556975 17.699410181488627 6 12 0
174 3 9.181134319421584 5.9516064441331755 19.789136391048686 6 12 0
101 3 10.405913860835524 7.704118946075816 17.679809338813676 6 12 0
157 3 11.648294784025728 4.2103176728530745 19.79032552675855 6 12 0
158 3 11.639688095974895 6.823330958861605 19.78365934915349 6 12 0
202 3 14.105711096660395 5.070360186647137 19.780685290723607 5 12 0
83 3 12.877725293075548 5.95601751654871 17.685208911817035 6 12 0
215 3 14.092140786890159 7.6823607078234994 19.779971187661687 5 12 0
781 3 1.7999619296049143 0.716662709748621 23.9706339796749 6 13 0
183 3 3.0290539965641825 2.4516327550373673 21.866548602564176 6 12 0
179 3 1.79858358950267 3.323600440804334 23.975772425538313 6 12 0
780 3 0.571731633065697 1.5886719112041203 21.861051504542203 6 13 0
768 3 4.251882108718794 1.5815458422447775 23.973511809019552 6 13 0
772 3 5.481758631352853 0.7069474181950379 21.874723223222325 6 13 0
163 3 6.710706184905776 2.4512048957522414 23.97848570501839 6 12 0
162 3 5.485975308800044 3.321050197653415 21.87556405082853 6 12 0
752 3 7.941983004537574 1.5840708736797398 21.88375354696266 6 13 0
753 3 9.166209010449764 0.7132883081105176 23.981015197144806 6 13 0
151 3 10.40591539124159 2.463416966531865 21.88553554913691 6 12 0
147 3 9.17272104213659 3.3279446920412035 23.982891192547672 6 12 0
732 3 11.6276278186686 1.5915238454969531 23.979756807680037 6 13 0
736 3 12.864573770106478 0.7231103478578974 21.867446269859276 6 13 0
197 3 14.097217654664531 2.458761374153168 23.97732412440631 5 12 0
146 3 12.870106037646524 3.331458404627716 21.879707650482406 6 12 0
213 3 14.096744165621947 7.6773460893823335 23.985070342508934 5 12 0
184 3 3.027073848296858 5.059903577606985 21.877005782864135 6 12 0
205 3 1.797713491040538 5.9330879976428275 23.98321911447229 6 12 0
203 3 0.5698289083644128 4.195467888920686 21.876161334420562 6 12 0
204 3 0.5660772286022221 6.8057606774076085 21.882987658798825 6 12 0
210 3 3.025204053740151 7.670424749391775 21.88606122168762 6 12 0
193 3 6.720153472996598 7.6815729219649524 23.980120548305997 6 12 0
191 3 5.48634797919825 5.933868997045334 21.880725460955095 6 12 0
186 3 4.259007920986438 6.80388160240355 23.981711416643023 6 12 0
185 3 4.256004368608359 4.192457996785276 23.97633002563278 6 12 0
164 3 6.715938026859053 5.065924693377937 23.978832567627748 6 12 0
171 3 9.17629183386267 5.941111688477816 23.981680746411843 6 12 0
152 3 10.40936547227632 5.075571256231381 21.8868296956958 6 12 0
170 3 7.94693494570446 6.813506656072117 21.88209683479213 6 12 0
169 3 7.946828364245393 4.199033784226096 21.88407402945771 6 12 0
176 3 10.404814742769029 7.687304928636158 21.878738254505734 6 12 0
159 3 12.868890197843413 5.942909909667497 21.884738941359934 6 12 0
198 3 14.097646097048337 5.067736489814533 23.98445789641465 5 12 0
154 3 11.634311526312533 6.812701121008 23.983705907721266 6 12 0
153 3 11.635407736825437 4.200806596091863 23.984703459588726 6 12 0
855 3 1.7987470712942604 0.7095388234099131 28.17977474992351 6 13 0
180 3 3.0275441117263746 2.454452902265161 26.07769428737579 6 12 0
253 3 1.7981963503274425 3.3236382636093884 28.18033027019438 6 12 0
776 3 0.5690466055423449 1.588252699680116 26.08271917858195 6 13 0
844 3 4.257974550202738 1.5787532308711432 28.176961913031278 6 13 0
769 3 5.48227095220802 0.7073706095609777 26.078573354381955 6 13 0
238 3 6.715920840152185 2.449507628036796 28.176629784174363 6 12 0
161 3 5.484959205433744 3.322220152712203 26.07671072534992 6 12 0
748 3 7.939899227233884 1.580199617053786 26.079675350035252 6 13 0
827 3 9.173824192598993 0.7066830708718548 28.17739091230627 6 13 0
783 3 10.400881173661608 2.4564896843243087 26.081950169286163 6 12 0
221 3 9.17506402690117 3.322072830912713 28.178635891608778 6 12 0
808 3 11.6359302759132 1.5820421217322975 28.178050388780267 6 13 0
733 3 12.862168958623347 0.718565299955516 26.081663321904067 6 13 0
272 3 14.097671457729199 2.4545328912314943 28.18250908997738 5 12 0
145 3 12.86442977752421 3.3261513988020175 26.08463988501718 6 12 0
181 3 3.0280385633934968 5.064031011372036 26.080312619842417 6 12 0
279 3 1.7991360369008533 5.935006732528752 28.182858475554585 6 12 0
200 3 0.5686060070990229 6.805904614990526 26.087539561823146 6 12 0
199 3 0.5668430671410032 4.195789922727362 26.083154740980618 6 12 0
207 3 3.0319583150263716 7.674364833959527 26.08357050121596 6 12 0
261 3 4.2598484731662145 6.807534201544775 28.17840515458206 6 12 0
260 3 4.258410027708693 4.193323170908442 28.177225306978134 6 12 0
239 3 6.717600590924794 5.065165821382112 28.17577556409452 6 12 0
187 3 5.48870940109553 5.935985814031818 26.078029732727725 6 12 0
266 3 6.719284931905095 7.681298007673114 28.176400750756617 6 12 0
166 3 7.947800902217037 6.809795936161801 26.078510421186287 6 12 0
165 3 7.944120788589367 4.1949162109773965 26.07884046467874 6 12 0
149 3 10.404918267794038 5.06770378596705 26.08254584977079 6 12 0
245 3 9.176850886585813 5.9371511192145885 28.178335028518244 6 12 0
173 3 10.405207312456229 7.679469689890767 26.08204337975125 6 12 0
229 3 11.637244987411572 6.807021961385932 28.18258769995208 6 12 0
228 3 11.636209327244837 4.19438440348458 28.181983604603804 6 12 0
273 3 14.098612096572724 5.064855844749241 28.18426898396693 5 12 0
155 3 12.866254827104754 5.936981188253505 26.086052697565773 6 12 0
286 3 14.098896800543153 7.675578590678087 28.185991410165414 5 12 0
854 3 1.7980990644168175 0.7006210244760903 32.371024510853346 6 13 0
254 3 3.029193981761544 2.4481039136425173 30.275098621581712 6 12 0
250 3 1.7997764098220481 3.317218980370939 32.3737171258489 6 12 0
853 3 0.5677532349384417 1.5774097882192142 30.277784190577503 6 13 0
841 3 4.259307393311243 1.5720213256179743 32.367276904008065 6 13 0
845 3 5.4891281529364075 0.7031312390695554 30.274047053000736 6 13 0
234 3 6.7186098126626455 2.447744558856525 32.36877296781913 6 12 0
233 3 5.489216825993985 3.3202151425416906 30.272759022308 6 12 0
825 3 7.9481927882777565 1.5756294222332354 30.27547525038633 6 13 0
826 3 9.179534208793074 0.7021513036631459 32.37450614331796 6 13 0
222 3 10.407862084766899 2.447577629040901 30.276054004375872 6 12 0
218 3 9.18061087793199 3.3199986648541344 32.37128540354685 6 12 0
805 3 11.639492581404939 1.5737658470843803 32.373367498113105 6 13 0
809 3 12.86888602599768 0.7049439041048392 30.2764976219724 6 13 0
268 3 14.099814209771221 2.4459509629365477 32.37396975696708 5 12 0
217 3 12.868652363653453 3.3204991606067584 30.27908235540615 6 12 0
275 3 0.5699999324263794 6.806361927562742 30.281807209015934 6 12 0
255 3 3.030562958012304 5.063892843069378 30.27819453528159 6 12 0
276 3 1.801872833482797 5.93496502873112 32.378470176870294 6 12 0
274 3 0.5695435120684587 4.192133463860461 30.280607620819488 6 12 0
281 3 3.0290476622453686 7.6805840052285665 30.276542228636636 6 12 0
256 3 4.262749271907105 4.1905220837558765 32.36971958388641 6 12 0
257 3 4.2611487845396185 6.811208386923465 32.371470806146014 6 12 0
262 3 5.489528124523732 5.937568156402273 30.27313570182121 6 12 0
235 3 6.721444567313629 5.0665574765161825 32.36631257015648 6 12 0
264 3 6.720072277145668 7.684342605035821 32.36839213417078 6 12 0
241 3 7.949097017237071 6.809913411736353 30.273100271041976 6 12 0
223 3 10.408576962303227 5.064213896061706 30.27657673752845 6 12 0
242 3 9.181328006806737 5.937544388747463 32.369575257392896 6 12 0
240 3 7.948648143499431 4.192556972164805 30.27340112573653 6 12 0
247 3 10.409050752309957 7.680778298155192 30.27674346451983 6 12 0
284 3 14.101127837349756 7.679264041549218 32.37673585767078 5 12 0
225 3 11.640942217114588 6.808150485595724 32.37383346273508 6 12 0
230 3 12.869971326565894 5.935167728428838 30.28063285068591 6 12 0
224 3 11.640559879092523 4.19083266316867 32.3733200215661 6 12 0
269 3 14.101612162640246 5.062505260150918 32.37703793417759 5 12 0
928 3 1.7964032819940128 0.6906519357219677 36.56253136363744 6 13 0
251 3 3.025959777435365 2.4397447371752685 34.46266019368998 6 12 0
324 3 1.7900085816163647 3.317380630335659 36.56469209689095 6 12 0
849 3 0.5671626194370036 1.5702710847507486 34.46754721113936 6 13 0
917 3 4.244957452589432 1.545797671040132 36.541138462620815 6 13 0
842 3 5.488493010603213 0.692320146827925 34.46155570843883 6 13 0
929 3 6.753944032928801 2.4219483556824133 36.51989846314764 6 12 0
232 3 5.491550635234479 3.3184568141091164 34.45822826591273 6 12 0
821 3 7.954760216919882 1.5703956833449497 34.46696232500294 6 13 0
900 3 9.195232159910086 0.6910751576438908 36.56803645148777 6 13 0
856 3 10.41574788847042 2.4457581034431444 34.470551048488254 6 12 0
292 3 9.194186057278927 3.3164581117813157 36.56348373455707 6 12 0
881 3 11.65123503384733 1.5691617378408538 36.5678930975444 6 13 0
806 3 12.872886995363812 0.699006755684415 34.46983037922805 6 13 0
343 3 14.102514382549614 2.4446084327354507 36.56650281115405 5 12 0
216 3 12.871392080634939 3.31708866968797 34.46990922214408 6 12 0
252 3 3.028188292730963 5.065932330848901 34.468652137856274 6 12 0
350 3 1.7890234102653353 5.942852242888732 36.56966386838929 6 12 0
270 3 0.5662260148180945 4.189062604651197 34.47264725524758 6 12 0
271 3 0.5670884059942546 6.809147078852455 34.473549783384925 6 12 0
278 3 3.0295339256421543 7.685798561227533 34.47141116862759 6 12 0
337 3 6.7263537638982 7.691069452478393 36.56279418064696 6 12 0
331 3 4.230691639266781 4.213106517078348 36.520849015275736 6 12 0
332 3 4.2572551785752335 6.819962145876441 36.56477904013517 6 12 0
310 3 6.739624336251152 5.089157687866116 36.5414598480034 6 12 0
258 3 5.494337277832452 5.944618769342569 34.46197022709032 6 12 0
237 3 7.953822840950764 6.814020273963834 34.465098698794506 6 12 0
236 3 7.956596409299577 4.196469996877062 34.4616175252995 6 12 0
220 3 10.41439862285374 5.064760304794686 34.46664245423099 6 12 0
316 3 9.187672502732871 5.9431774792215055 36.56233800961124 6 12 0
244 3 10.412443829980548 7.682790969406274 34.46893826372054 6 12 0
325 3 14.095989328649996 7.680881071664557 36.569896492921316 5 12 0
300 3 11.639207147547452 6.809102014604567 36.568191502848975 6 12 0
299 3 11.64261448046811 4.188038287002348 36.5659936619581 6 12 0
344 3 14.093927121504334 5.063559910524948 36.56889190399842 5 12 0
226 3 12.869892136989607 5.935533038972818 34.47110451253853 6 12 0
927 3 1.798316929831823 0.6886738546457064 40.777641441504215 6 13 0
930 3 2.9751143670142186 2.4226524700686514 38.67021822247902 6 12 0
321 3 1.7916541109165642 3.3151510166263947 40.77570423528529 6 12 0
926 3 0.5705468300849627 1.5681750899174882 38.6699146111714 6 13 0
914 3 4.246771195056216 1.5440281971558714 40.79855267201676 6 13 0
918 3 5.494231398979529 0.6359443870143228 38.668913670829276 6 13 0
305 3 6.755714691715682 2.4201728820285733 40.81882955003514 6 12 0
304 2 5.49320924639414 3.316673092795772 38.67016401148701 6 12 0
898 3 7.988400454306321 1.546050496397079 38.66853082718746 6 13 0
899 3 9.197024646382628 0.6889724245699532 40.768130297568 6 13 0
293 3 10.426374146359308 2.4371481406946605 38.66844882260658 6 12 0
289 3 9.195937316975057 3.3146596129132875 40.774312851864565 6 12 0
878 3 11.65294128648138 1.566885534731154 40.76902638357904 6 13 0
882 3 12.883342680019126 0.6969514055722295 38.66919468858199 6 13 0
931 3 14.10418521029871 2.4422525152323 40.77222338002386 5 12 0
288 3 12.873520539990801 3.31521447335494 38.668852209904735 6 12 0
326 3 2.9978594767003233 5.086408410605634 38.670239690410455 6 12 0
347 3 1.7909640059106533 5.940428411479974 40.769568239914946 6 12 0
346 3 0.5613470014852974 6.8103368269343365 38.66911857078324 6 12 0
345 3 0.5594294737455032 4.193970278548121 38.669564816877624 6 12 0
352 3 3.022266389065726 7.688540531395934 38.66947608015508 6 12 0
335 3 6.729086549107716 7.689233114435796 40.7789414011502 6 12 0
327 3 4.232429767222549 4.211008136499885 40.82049297885786 6 12 0
328 3 4.259466238787555 6.817769374906287 40.77584868398963 6 12 0
333 3 5.492523291325884 5.997181299895365 38.67079553312227 6 12 0
306 3 6.741592260659883 5.087297936271771 40.7998065115333 6 12 0
318 3 10.411198419919772 7.684000212534721 38.670569825041504 6 12 0
311 3 8.011231225432446 4.209984972709024 38.66986910972501 6 12 0
313 3 9.189915002643746 5.941516053894401 40.778239289868864 6 12 0
294 3 10.415388783205286 5.063164024068949 38.66942555205142 6 12 0
312 3 7.9594432703211195 6.818543416213497 38.670923800414485 6 12 0
295 3 11.644444483848392 4.186045180472913 40.77151141848409 6 12 0
340 3 14.095780726279964 5.061288906977636 40.76927093398251 5 12 0
301 3 12.8638272394399 5.93368168167321 38.66914371629245 6 12 0
296 3 11.641567130197103 6.807283037771951 40.77137867473332 6 12 0
355 3 14.098309495745049 7.67873464554923 40.76851449832285 5 12 0
1003 3 1.8037299036978915 0.693594997929327 44.970010412178745 6 13 0
393 3 1.8037462842388952 3.31030175616732 44.96764033991476 6 12 0
922 3 0.5705240122879176 1.5655167285453422 42.87262984830555 6 13 0
322 3 3.0290737203542215 2.4359590798469855 42.87845182045024 6 12 0
992 3 4.264282172829214 1.5670479868319434 44.97305439257874 6 13 0
915 3 5.492169798387018 0.6891584076674135 42.876548989970026 6 13 0
378 3 6.722949411079095 2.443390609627004 44.96997050403523 6 12 0
303 3 5.49450475618638 3.3152211746875557 42.88249455370908 6 12 0
894 3 7.95786787452406 1.5670251466124951 42.869778778877325 6 13 0
975 3 9.184035679981173 0.6966023494831395 44.96001240051188 6 13 0
361 3 9.18499179476074 3.314875624159989 44.96556666648081 6 12 0
290 3 10.418836567072818 2.4418478608502263 42.86550839872451 6 12 0
956 3 11.643877733971115 1.566459453407469 44.961989989890334 6 13 0
879 3 12.87633783433009 0.6940541649012352 42.86812992748651 6 13 0
412 3 14.104369457625394 2.437267329768726 44.96451284419086 5 12 0
287 3 12.874570298989294 3.312376842907858 42.86731331105717 6 12 0
323 3 3.0313041472507494 5.061630907828211 42.87249430961421 6 12 0
419 3 1.8061492443761817 5.928532890485304 44.961177593329786 6 12 0
342 3 0.5711024784034306 6.80455697009482 42.86429448557943 6 12 0
341 3 0.5693249707723655 4.184314989699268 42.86674901751362 6 12 0
349 3 3.0342270368005857 7.681263376221677 42.86670911522287 6 12 0
400 3 4.266487699137525 4.185492734121118 44.97290115455197 6 12 0
401 3 4.2671021443906865 6.805338526641983 44.968939271106976 6 12 0
379 3 6.7262034761840725 5.061934341567352 44.975262468123496 6 12 0
329 3 5.49819541456219 5.940797577827181 42.87987364380777 6 12 0
406 3 6.72807710815552 7.67899479335147 44.97374435372585 6 12 0
307 3 7.959903062245996 4.19329800843427 42.87789462298725 6 12 0
308 3 7.958761180680416 6.810592355216782 42.87695118654157 6 12 0
291 3 10.418206845508895 5.061146351507286 42.871754232166694 6 12 0
385 3 9.187238276682224 5.932345260338958 44.97089076695018 6 12 0
315 3 10.41787596631635 7.67922726471681 42.87291846771925 6 12 0
368 3 11.645273699704347 4.183821826482047 44.96304252222757 6 12 0
369 3 11.647502880443819 6.802065982035276 44.965673644687456 6 12 0
413 3 14.106192242933616 5.054897603374006 44.9605186376605 5 12 0
297 3 12.873836459393893 5.931279015307116 42.86687030341253 6 12 0
374 3 14.107754678249137 7.673422933342554 44.960686226724874 5 12 0
1002 3 1.808157200039909 0.693305540380178 49.162081502291066 6 13 0
394 3 3.035822097997341 2.4386274082069703 47.06658517211239 6 12 0
390 3 1.8072049649905602 3.3023905839304075 49.160108708868385 6 12 0
1001 3 0.5746342551314058 1.5636065999279047 47.06299362501165 6 13 0
993 3 5.497738821017665 0.6961770811517335 47.0644367153554 6 13 0
989 3 4.270528322748244 1.5664338494315866 49.16287369524567 6 13 0
1005 3 6.729997397213387 2.438491847429725 49.1624462393795 6 12 0
373 3 5.496347767462344 3.3132151195402644 47.068342041890695 6 12 0
973 3 7.95579773411258 1.568259979941196 47.06073580211369 6 13 0
974 3 9.187153272201824 0.6936035592659585 49.15856026522803 6 13 0
1004 3 10.414176982613023 2.437539493407263 47.05862129273162 6 12 0
358 3 9.186124580412356 3.307895451729422 49.1589927128396 6 12 0
953 3 11.645073836280748 1.5608129150507388 49.15747098899232 6 13 0
957 3 12.875029299735433 0.6915399699563076 47.061300469228904 6 13 0
408 3 14.105890844848206 2.4294598768045956 49.15548750169749 5 12 0
357 3 12.874763659923468 3.3065113826267383 47.05675012912259 6 12 0
421 3 3.0381966981169417 7.674390194186736 47.05833306408751 6 12 0
414 3 0.5741604459126242 4.179292954100356 47.05828112614448 6 12 0
415 3 0.5750446072717129 6.799583815481362 47.05321387432526 6 12 0
416 3 1.8098886890699686 5.920232544630255 49.15151301412318 6 12 0
395 3 3.0354239122731914 5.055813870987412 47.064837574628214 6 12 0
397 3 4.271785580847175 6.798930763682976 49.16112227779353 6 12 0
396 3 4.271298720235376 4.17944861746634 49.16400128795622 6 12 0
402 3 5.4964642028973 5.9311455309498955 47.069508989681935 6 12 0
375 3 6.729707166034925 5.055168599236919 49.165707600112185 6 12 0
404 3 6.727935638295323 7.675040421023191 49.16719841985823 6 12 0
387 3 10.417848471770057 7.672608380636609 47.06596699417527 6 12 0
380 3 7.955461362661545 4.185478087996749 47.06583845985858 6 12 0
381 3 7.956735049503504 6.803530500443344 47.06968823265825 6 12 0
363 3 10.41488293529837 5.054968951226203 47.06068362124865 6 12 0
382 3 9.184759249373998 5.926289703989783 49.160803242694726 6 12 0
364 3 11.643890988859903 4.175350760003739 49.15331193773703 6 12 0
370 3 12.876186476454386 5.924570192963637 47.054263781375944 6 12 0
409 3 14.103791918038777 5.043289215442139 49.14715374224177 5 12 0
424 3 14.108065504268383 7.669822985429566 49.1434774746723 5 12 0
365 3 11.64267298035211 6.793413858726417 49.1517760552009 6 12 0
1088 3 1.8089753680154146 0.693842921180823 53.36664476070624 6 13 0
469 3 1.8173728105191496 3.2935823879032675 53.36284481533149 6 12 0
997 3 0.5781137841555543 1.5614914827279653 51.25951124023522 6 13 0
470 3 3.0454428852154436 2.428138285543398 55.47315138347656 6 12 0
1006 3 3.044141552317794 2.4307739987308894 51.26154548132548 6 12 0
1075 3 4.2756022270699 1.5644868869057043 53.36701822317872 6 13 0
451 3 6.737492621894796 2.436263000299499 53.36660104991962 6 12 0
1076 3 5.506214510213179 0.6954415973805748 55.47329627772366 6 13 0
372 3 5.507009418251598 3.306087559620142 51.263519450833726 6 12 0
990 3 5.503222937535188 0.6973467038178187 51.26235658117507 6 13 0
1055 3 9.188098044653799 0.6938283851903917 53.36548268627965 6 13 0
432 3 9.194977774827773 3.30391882040327 53.36502616760358 6 12 0
359 3 10.415872154413037 2.430793976343279 51.25844629935773 6 12 0
969 3 7.961135012078638 1.5654779410026303 51.26152089600221 6 13 0
1034 3 11.643670663346512 1.5619643661495828 53.36518214214248 6 13 0
1089 3 14.10742890961009 2.427758744261197 53.363893532936736 5 12 0
954 3 12.87489785548736 0.6904875826463985 51.26168017470491 6 13 0
426 3 12.876605026013683 3.2969853152373725 55.47429990279912 6 12 0
356 3 12.872706190108389 3.295756386893963 51.25132231557678 6 12 0
411 3 0.6073390721347097 6.768750058366783 51.202671566947764 6 12 0
500 3 1.8389125375940296 5.887302182492407 53.35277880710119 6 12 0
410 3 0.5804615946110135 4.163494798606887 51.251413409058394 6 12 0
494 3 0.5801181878040048 4.1625027894910875 55.47138090110915 6 12 0