LAMMPS (22 Dec 2022)
OMP_NUM_THREADS environment is not set. Defaulting to 1 thread. (../comm.cpp:98)
  using 1 OpenMP thread(s) per MPI task
# general variables
variable	temperature equal 300 #change this to the temperature of interest
variable	nsteps_run equal 5000000

# general settings
units		metal
dimension 3
boundary	p p p

#processors      3 3 3
atom_style	atomic

# ------------------- ATOM DEFINE ------------------------------

variable        latparam equal 3.01685999999993             #variable

variable        xl equal 0
variable        xh equal 3
variable        yl equal 0
variable        yh equal 3
variable        zl equal 0
variable        zh equal 16

lattice         bcc ${latparam} orient x 1 1 -2 orient y 1 1 1 orient z 1 -1 0
lattice         bcc 3.01685999999993 orient x 1 1 -2 orient y 1 1 1 orient z 1 -1 0
Lattice spacing in x,y,z = 4.9265118 5.2253548 4.2664843
region          mybox block ${xl} ${xh} ${yl} ${yh} ${zl} ${zh}
region          mybox block 0 ${xh} ${yl} ${yh} ${zl} ${zh}
region          mybox block 0 3 ${yl} ${yh} ${zl} ${zh}
region          mybox block 0 3 0 ${yh} ${zl} ${zh}
region          mybox block 0 3 0 3 ${zl} ${zh}
region          mybox block 0 3 0 3 0 ${zh}
region          mybox block 0 3 0 3 0 16

create_box      5 mybox
Created orthogonal box = (0 0 0) to (14.779535 15.676064 68.263749)
  1 by 2 by 8 MPI processor grid

mass 1 180.948
mass 2 92.9064
mass 3 50.9415
mass 4 95.94
mass 5 183.84

create_atoms 3 box
Created 1152 atoms
  using lattice units in orthogonal box = (0 0 0) to (14.779535 15.676064 68.263749)
  create_atoms CPU = 0.001 seconds
set type 3 type/ratio 2 0.05 384
Setting atom values ...
  57 settings made for type/ratio

# ----------------------- FORCE FIELDS -----------------------
pair_style mlip mlip.ini
pair_coeff * *

# ------------------------- SETTINGS --------------------------
timestep 0.001
delete_atoms overlap 2 all all
System init for delete_atoms ...
Neighbor list info ...
  update: every = 1 steps, delay = 0 steps, check = yes
  max neighbors/atom: 2000, page size: 100000
  master list distance cutoff = 6.8
  ghost atom cutoff = 6.8
  binsize = 3.4, bins = 5 5 21
  2 neighbor lists, perpetual/occasional/extra = 1 1 0
  (1) command delete_atoms, occasional, copy from (2)
      attributes: full, newton on
      pair build: copy
      stencil: none
      bin: none
  (2) pair mlip, perpetual
      attributes: full, newton on
      pair build: full/bin/atomonly
      stencil: full/bin/3d
      bin: standard
Deleted 0 atoms, new total = 1152
velocity all create ${temperature} 4928459 rot yes dist gaussian
velocity all create 300 4928459 rot yes dist gaussian

fix 1 all atom/swap 1 1 114514 ${temperature} types 3 2
fix 1 all atom/swap 1 1 114514 300 types 3 2
fix temp all npt temp ${temperature} ${temperature} 0.1 iso 0 0 0.1
fix temp all npt temp 300 ${temperature} 0.1 iso 0 0 0.1
fix temp all npt temp 300 300 0.1 iso 0 0 0.1
thermo 1000
thermo_style custom step pe ke etotal time cpu tpcpu

dump 1 all custom 20000 dump.* id type x y z
run ${nsteps_run}
run 5000000
Neighbor list info ...
  update: every = 1 steps, delay = 0 steps, check = yes
  max neighbors/atom: 2000, page size: 100000
  master list distance cutoff = 6.8
  ghost atom cutoff = 6.8
  binsize = 3.4, bins = 5 5 21
  1 neighbor lists, perpetual/occasional/extra = 1 0 0
  (1) pair mlip, perpetual
      attributes: full, newton on
      pair build: full/bin/atomonly
      stencil: full/bin/3d
      bin: standard
Per MPI rank memory allocation (min/avg/max) = 4.351 | 4.354 | 4.355 Mbytes
   Step         PotEng         KinEng         TotEng          Time           CPU           T/CPU     
         0  -10499.523      44.633528     -10454.89       0              0              0            
      1000  -10466.966      43.943594     -10423.023      1              113.98603      0.0087730046 
      2000  -10464.01       46.41322      -10417.597      2              229.9708       0.0086218219 
      3000  -10466.011      44.82374      -10421.187      3              346.2047       0.0086033422 
      4000  -10465.106      43.606001     -10421.5        4              460.72859      0.0087318021 
      5000  -10464.544      45.145004     -10419.399      5              574.49598      0.0087898652 
      6000  -10465.202      43.334508     -10421.868      6              688.58904      0.0087647753 
      7000  -10461.943      45.213329     -10416.729      7              803.3743       0.0087119201 
      8000  -10465.163      43.986408     -10421.177      8              917.13066      0.008790717  
      9000  -10466.006      43.652835     -10422.354      9              1031.4052      0.0087508527 
     10000  -10466.098      46.508755     -10419.59       10             1145.9896      0.0087271951 
     11000  -10463.228      44.248736     -10418.979      11             1260.7018      0.0087174677 
     12000  -10467.454      45.470242     -10421.984      12             1376.3783      0.0086448017 
     13000  -10465.441      43.462143     -10421.979      13             1490.3355      0.0087752203 
     14000  -10465.001      44.777339     -10420.223      14             1605.5984      0.0086758191 
     15000  -10464.706      42.713409     -10421.993      15             1720.0048      0.0087407728 
     16000  -10464.586      43.450709     -10421.135      16             1835.2754      0.0086752335 
     17000  -10466.11       43.245696     -10422.864      17             1950.002       0.008716373  
     18000  -10464.477      45.50055      -10418.976      18             2065.3261      0.0086712217 
     19000  -10465.664      45.554555     -10420.109      19             2181.0046      0.008644642  
     20000  -10465.618      45.028117     -10420.59       20             2296.0411      0.0086929002 
     21000  -10466.218      44.807783     -10421.411      21             2411.0714      0.0086933599 
     22000  -10463.31       45.054469     -10418.256      22             2525.8895      0.0087094282 
     23000  -10466.799      44.629076     -10422.17       23             2640.4334      0.0087302717 
     24000  -10465.313      45.095764     -10420.217      24             2753.795       0.0088213342 
     25000  -10466.104      45.000289     -10421.104      25             2866.5918      0.0088654967 
     26000  -10466.718      43.653995     -10423.064      26             2979.9555      0.0088211645 
     27000  -10465.233      44.591789     -10420.641      27             3092.3344      0.0088984682 
     28000  -10466.105      44.125004     -10421.98       28             3203.6654      0.0089822249 
     29000  -10465.592      45.952564     -10419.639      29             3315.5832      0.0089351342 
     30000  -10465.125      43.871072     -10421.254      30             3428.8485      0.0088288224 
     31000  -10466.46       46.795988     -10419.664      31             3542.447       0.0088029391 
     32000  -10464.427      43.973862     -10420.454      32             3655.3642      0.008856042  
     33000  -10467.393      45.261976     -10422.131      33             3768.183       0.0088637702 
     34000  -10466.716      45.585304     -10421.131      34             3879.7275      0.0089650323 
     35000  -10466.264      42.857389     -10423.407      35             3992.536       0.0088645863 
     36000  -10466.085      46.151879     -10419.934      36             4105.5229      0.0088505838 
     37000  -10465.872      43.558369     -10422.313      37             4222.0479      0.0085818431 
     38000  -10464.932      45.106259     -10419.826      38             4337.1102      0.0086909472 
     39000  -10466.652      45.049088     -10421.603      39             4451.134       0.0087700982 
     40000  -10466.529      44.958743     -10421.57       40             4565.4233      0.0087497246 
     41000  -10466.89       45.765095     -10421.125      41             4679.6139      0.008757289  
     42000  -10466.762      44.700042     -10422.062      42             4794.728       0.0086870368 
     43000  -10468.402      45.906236     -10422.496      43             4909.6278      0.0087032321 
     44000  -10465.427      44.631073     -10420.796      44             5022.7997      0.0088361144 
     45000  -10465.563      43.407029     -10422.156      45             5135.7127      0.0088563777 
     46000  -10466.401      43.649844     -10422.751      46             5248.2631      0.0088849098 
     47000  -10467.564      45.805624     -10421.759      47             5361.0459      0.0088666001 
     48000  -10467.418      43.870227     -10423.548      48             5474.0547      0.0088488673 
     49000  -10465.875      46.891518     -10418.984      49             5587.2817      0.0088318189 
     50000  -10468.04       45.344248     -10422.696      50             5702.0685      0.0087117991 
     51000  -10466.74       45.051994     -10421.688      51             5816.5473      0.0087352405 
     52000  -10467.879      42.467083     -10425.412      52             5931.4704      0.0087014705 
     53000  -10465.342      44.801533     -10420.54       53             6046.9919      0.008656399  
     54000  -10466.042      42.773769     -10423.268      54             6160.085       0.0088422713 
     55000  -10467.177      46.806293     -10420.371      55             6272.9257      0.0088620487 
     56000  -10466.589      45.728017     -10420.861      56             6385.9019      0.0088514229 
     57000  -10467.561      43.986843     -10423.574      57             6497.3248      0.008974816  
     58000  -10466.894      45.766349     -10421.128      58             6608.6863      0.0089797646 
     59000  -10465.147      46.602753     -10418.544      59             6719.629       0.0090136615 
     60000  -10467.717      45.284013     -10422.433      60             6830.7166      0.0090019043 
     61000  -10465.502      45.221445     -10420.281      61             6940.5913      0.0091012769 
     62000  -10466.845      42.819067     -10424.026      62             7051.8009      0.0089920282 
     63000  -10466.628      44.972095     -10421.656      63             7161.652       0.009103234  
     64000  -10469.127      46.505765     -10422.621      64             7271.6157      0.0090939148 
     65000  -10466.766      43.275717     -10423.49       65             7381.6399      0.009088909  
     66000  -10465.421      46.014372     -10419.406      66             7491.6214      0.0090924369 
     67000  -10466.54       44.875964     -10421.664      67             7602.0868      0.0090526053 
     68000  -10466.043      43.62364      -10422.419      68             7712.4869      0.0090579605 
     69000  -10465.568      44.880124     -10420.687      69             7823.2196      0.0090307608 
     70000  -10468.303      44.245669     -10424.058      70             7932.9454      0.0091136249 
     71000  -10465.606      43.018374     -10422.587      71             8042.719       0.0091096576 
     72000  -10468.142      43.224781     -10424.917      72             8153.3921      0.009035617  
     73000  -10468.223      45.611028     -10422.612      73             8263.1141      0.0091139452 
     74000  -10468.133      43.980814     -10424.152      74             8374.0485      0.0090143361 
     75000  -10468.234      44.954145     -10423.28       75             8483.4461      0.009140967  
     76000  -10467.116      43.411176     -10423.705      76             8592.4623      0.0091729492 
     77000  -10464.827      44.799539     -10420.027      77             8701.2206      0.0091947047 
     78000  -10467.484      44.343769     -10423.14       78             8810.6222      0.0091406297 
     79000  -10467.685      44.079541     -10423.606      79             8918.8302      0.0092414671 
     80000  -10466.088      44.916093     -10421.171      80             9027.3743      0.0092128383 
     81000  -10465.838      44.30179      -10421.536      81             9136.085       0.0091987294 
     82000  -10467.466      45.06663      -10422.4        82             9244.914       0.0091887305 
     83000  -10465.811      44.115955     -10421.695      83             9354.6606      0.0091118986 
     84000  -10465.639      44.857961     -10420.781      84             9463.4909      0.0091886165 
     85000  -10469.727      43.695506     -10426.031      85             9572.2894      0.0091912994 
     86000  -10467.772      45.34061      -10422.432      86             9681.3545      0.009168838  
     87000  -10468.138      44.480957     -10423.657      87             9790.3919      0.0091711672 
     88000  -10467.059      43.757298     -10423.302      88             9899.8741      0.0091339048 
     89000  -10466.919      44.945328     -10421.974      89             10009.92       0.0090871278 
     90000  -10467.62       43.01227      -10424.607      90             10119.209      0.0091500104 
     91000  -10466.523      46.027131     -10420.495      91             10228.603      0.00914133   
     92000  -10467.326      44.13524      -10423.191      92             10338.034      0.0091381605 
     93000  -10465.848      43.82068      -10422.027      93             10447.687      0.0091196825 
     94000  -10466.919      44.452746     -10422.466      94             10557.571      0.009100469  
     95000  -10468.193      45.674343     -10422.519      95             10667.112      0.0091290275 
     96000  -10467.072      43.987219     -10423.084      96             10777.253      0.0090792422 
     97000  -10468.654      45.600062     -10423.054      97             10886.99       0.0091127611 
     98000  -10467.514      46.20875      -10421.306      98             10996.601      0.0091230951 
     99000  -10468.609      43.669677     -10424.939      99             11106.607      0.0090904747 
    100000  -10466.518      44.671732     -10421.846      100            11216.962      0.0090616707 
    101000  -10467.601      42.981202     -10424.62       101            11326.549      0.0091251482 
    102000  -10465.789      45.631237     -10420.158      102            11436.272      0.0091138449 
    103000  -10468.112      44.184094     -10423.928      103            11545.818      0.0091285594 
    104000  -10467.173      46.253054     -10420.92       104            11655.483      0.009118727  
    105000  -10468.945      45.545328     -10423.4        105            11765.43       0.0090953081 
    106000  -10466.48       44.363464     -10422.116      106            11875.103      0.0091179681 
    107000  -10468.285      43.449326     -10424.836      107            11984.734      0.0091214976 
    108000  -10466.463      45.091135     -10421.372      108            12094.314      0.0091257435 
    109000  -10468.375      45.093229     -10423.281      109            12203.729      0.0091395631 
    110000  -10469.472      46.042513     -10423.429      110            12313.263      0.009129555  
    111000  -10466.837      45.724551     -10421.113      111            12423.335      0.0090849747 
    112000  -10467.246      43.838803     -10423.407      112            12532.317      0.0091758606 
    113000  -10468.646      44.412287     -10424.234      113            12641.853      0.0091294158 
    114000  -10467.647      46.196486     -10421.451      114            12751.03       0.009159382  
    115000  -10469.006      44.587243     -10424.418      115            12860.342      0.0091481934 
    116000  -10467.418      43.971728     -10423.446      116            12970.519      0.0090762944 
    117000  -10468.117      46.741253     -10421.376      117            13080.364      0.0091036945 
    118000  -10469.381      45.081928     -10424.299      118            13190.352      0.0090919181 
    119000  -10467.457      44.958811     -10422.498      119            13300.509      0.0090779518 
    120000  -10467.703      43.325865     -10424.377      120            13410.795      0.0090673117 
    121000  -10467.524      44.468784     -10423.055      121            13521.548      0.009029094  
    122000  -10470.992      44.625788     -10426.367      122            13632.259      0.0090325595 
    123000  -10467.036      45.246005     -10421.79       123            13743.556      0.0089849585 
    124000  -10467.973      45.079027     -10422.894      124            13856.621      0.0088444619 
    125000  -10466.351      44.853578     -10421.498      125            13969.998      0.008820105  
    126000  -10466.447      44.083246     -10422.363      126            14082.333      0.0089019899 
    127000  -10469.135      43.742313     -10425.393      127            14194.743      0.0088959836 
    128000  -10467.606      44.897775     -10422.709      128            14307.048      0.0089043109 
    129000  -10469.324      44.838922     -10424.485      129            14420.464      0.0088171222 
    130000  -10467.187      45.375199     -10421.812      130            14533.606      0.0088384602 
    131000  -10467.897      42.74446      -10425.153      131            14646.107      0.0088888007 
    132000  -10468.458      43.664089     -10424.794      132            14758.509      0.0088966027 
    133000  -10466.462      46.480492     -10419.981      133            14870.102      0.0089611841 
    134000  -10468.755      44.871712     -10423.883      134            14981.729      0.0089584199 
    135000  -10468.211      46.017972     -10422.193      135            15092.812      0.0090022419 
    136000  -10468.845      43.369596     -10425.475      136            15203.382      0.0090440674 
    137000  -10467.39       45.015014     -10422.375      137            15314.873      0.0089693416 
    138000  -10468.54       43.129144     -10425.411      138            15426.463      0.0089613863 
    139000  -10468.235      45.539045     -10422.696      139            15538.125      0.0089555758 
    140000  -10469.098      44.091522     -10425.006      140            15650.691      0.0088836381 
    141000  -10468.962      45.875691     -10423.086      141            15763.974      0.0088274471 
    142000  -10471.553      44.96151      -10426.591      142            15876.353      0.0088984983 
    143000  -10469.2        46.54464      -10422.656      143            15989.28       0.008855246  
    144000  -10469.193      44.698451     -10424.495      144            16099.727      0.0090541563 
    145000  -10468.695      46.19121      -10422.504      145            16211.951      0.0089107785 
    146000  -10471.289      44.919865     -10426.37       146            16322.616      0.0090362481 
    147000  -10468.575      45.0072       -10423.567      147            16433.075      0.0090531506 
    148000  -10468.392      44.620838     -10423.771      148            16543.973      0.0090172602 
    149000  -10468.525      44.829008     -10423.696      149            16653.48       0.0091318343 
    150000  -10468.526      43.913465     -10424.613      150            16761.809      0.0092311094 
    151000  -10468.129      45.742517     -10422.386      151            16870.324      0.0092153821 
    152000  -10470.569      45.54482      -10425.024      152            16979.148      0.0091891036 
    153000  -10470.217      43.105211     -10427.112      153            17087.743      0.0092085521 
    154000  -10469.642      45.317533     -10424.324      154            17197.002      0.009152556  
    155000  -10469.484      42.936274     -10426.548      155            17306.229      0.0091552546 
    156000  -10470.584      44.947422     -10425.636      156            17415.304      0.0091680274 
    157000  -10470.068      45.879433     -10424.188      157            17524.46       0.0091611612 
    158000  -10470.167      44.343731     -10425.823      158            17633.751      0.0091499294 
    159000  -10467.933      43.732219     -10424.201      159            17743.073      0.0091472255 
    160000  -10470.562      44.487382     -10426.075      160            17852.526      0.0091363321 
    161000  -10468.876      45.749002     -10423.127      161            17962.197      0.0091181878 
    162000  -10469.421      44.976074     -10424.445      162            18071.591      0.0091412697 
    163000  -10468.655      44.556906     -10424.099      163            18181.312      0.0091140675 
    164000  -10469.574      45.246646     -10424.328      164            18290.812      0.0091324199 
    165000  -10469.924      41.889611     -10428.034      165            18400.87       0.0090861441 
    166000  -10468.402      45.380024     -10423.021      166            18510.353      0.0091338045 
    167000  -10467.73       44.55603      -10423.174      167            18619.51       0.0091610774 
    168000  -10469.991      43.496257     -10426.494      168            18729.215      0.0091153618 
    169000  -10467.867      44.324192     -10423.543      169            18838.589      0.0091429642 
    170000  -10471.093      42.632623     -10428.46       170            18948.637      0.0090869835 
    171000  -10469.606      45.740314     -10423.866      171            19058.107      0.0091349114 
    172000  -10468.383      45.58601      -10422.797      172            19167.385      0.009150923  
    173000  -10469.812      43.606368     -10426.206      173            19276.762      0.0091427246 
    174000  -10466.583      43.994558     -10422.589      174            19386.571      0.0091067007 
    175000  -10471.258      45.530156     -10425.727      175            19496.176      0.009123659  
    176000  -10467.877      44.082762     -10423.794      176            19605.848      0.0091181246 
    177000  -10467.319      44.04981      -10423.269      177            19714.834      0.0091754817 
    178000  -10468.648      45.853914     -10422.794      178            19824.163      0.0091467421 
    179000  -10468.567      45.334242     -10423.233      179            19933.34       0.0091593842 
    180000  -10471.138      45.255552     -10425.883      180            20043.302      0.0090940364 
    181000  -10469.653      45.795276     -10423.858      181            20153.151      0.0091034449 
    182000  -10469.831      42.854085     -10426.977      182            20262.86       0.0091150196 
    183000  -10470.312      46.131773     -10424.18       183            20372.288      0.0091384423 
    184000  -10468.968      45.532629     -10423.435      184            20481.582      0.0091496561 
    185000  -10468.904      44.07948      -10424.824      185            20591.127      0.0091285921 
    186000  -10469.256      45.684169     -10423.572      186            20700.398      0.0091515746 
    187000  -10468.359      41.969091     -10426.39       187            20809.821      0.009138844  
    188000  -10466.588      44.522693     -10422.066      188            20918.917      0.0091662578 
    189000  -10470.066      44.784464     -10425.281      189            21027.751      0.0091883415 
    190000  -10470.619      44.483731     -10426.135      190            21136.677      0.0091805303 
    191000  -10468.134      44.767709     -10423.366      191            21245.972      0.0091495625 
    192000  -10473.161      44.249141     -10428.912      192            21355.826      0.0091029542 
    193000  -10468.454      44.84394      -10423.61       193            21464.692      0.0091856274 
    194000  -10470.941      43.584999     -10427.356      194            21573.611      0.0091811647 
    195000  -10469.129      43.436693     -10425.692      195            21682.547      0.0091796239 
    196000  -10468.63       45.022653     -10423.607      196            21791.311      0.0091942537 
    197000  -10470.044      46.544472     -10423.499      197            21900.562      0.0091532513 
    198000  -10467.631      46.200336     -10421.43       198            22010.254      0.0091163795 
    199000  -10469.874      44.926301     -10424.948      199            22119.148      0.0091832927 
    200000  -10467.907      46.441673     -10421.465      200            22228.822      0.0091179554 
    201000  -10469.636      45.364065     -10424.272      201            22337.496      0.0092017766 
    202000  -10469.91       44.515389     -10425.395      202            22446.37       0.009184971  
    203000  -10468.195      46.123326     -10422.072      203            22555.323      0.0091782576 
    204000  -10468.671      44.047215     -10424.624      204            22663.656      0.0092307726 
    205000  -10467.307      44.441912     -10422.865      205            22772.216      0.009211523  
    206000  -10468.828      43.401388     -10425.427      206            22880.609      0.0092257016 
    207000  -10469.038      44.662801     -10424.375      207            22989.545      0.0091796771 
    208000  -10469.039      44.48438      -10424.555      208            23098.085      0.0092131834 
    209000  -10470.401      44.485709     -10425.915      209            23207.563      0.0091342841 
    210000  -10469.199      43.92317      -10425.275      210            23316.644      0.0091675062 
    211000  -10469.14       43.578724     -10425.561      211            23426.15       0.0091319322 
    212000  -10467.583      46.284542     -10421.298      212            23535.161      0.009173351  
    213000  -10469.739      44.329698     -10425.409      213            23643.811      0.0092038453 
    214000  -10469.525      43.071968     -10426.454      214            23753.105      0.0091496559 
    215000  -10469.68       45.555101     -10424.125      215            23862.076      0.0091767132 
    216000  -10470.529      44.954547     -10425.575      216            23971.363      0.0091502521 
    217000  -10469.081      44.633796     -10424.447      217            24080.151      0.0091921937 
    218000  -10467.968      45.421427     -10422.547      218            24189.251      0.0091659192 
    219000  -10471.357      44.974174     -10426.383      219            24298.504      0.0091530581 
    220000  -10468.903      44.61146      -10424.291      220            24408.427      0.0090972795 
    221000  -10469.86       44.074449     -10425.786      221            24517.742      0.0091478824 
    222000  -10469.131      44.856699     -10424.274      222            24627.262      0.0091307366 
    223000  -10469.06       43.735534     -10425.324      223            24736.122      0.0091860766 
    224000  -10470.242      44.406409     -10425.836      224            24845.682      0.0091274209 
    225000  -10468.015      44.546273     -10423.469      225            24955.913      0.0090718819 
    226000  -10469.466      43.800011     -10425.666      226            25065.326      0.009139693  
    227000  -10467.697      45.139087     -10422.558      227            25175.376      0.0090867533 
    228000  -10468.201      43.75655      -10424.444      228            25285.355      0.0090926613 
    229000  -10471.286      43.388984     -10427.897      229            25395.312      0.0090944781 
    230000  -10469.153      45.07609      -10424.077      230            25505.458      0.0090788673 
    231000  -10469.729      44.582948     -10425.146      231            25616.387      0.0090147493 
    232000  -10468.295      44.383574     -10423.911      232            25726.171      0.0091087975 
    233000  -10469.221      44.520081     -10424.701      233            25836.843      0.0090357187 
    234000  -10469.883      44.370955     -10425.512      234            25946.509      0.0091186043 
    235000  -10469.65       44.437632     -10425.213      235            26056.786      0.0090680413 
    236000  -10470.263      45.750533     -10424.513      236            26166.935      0.0090786227 
    237000  -10467.528      45.285898     -10422.243      237            26277.159      0.0090724857 
    238000  -10467.111      42.169753     -10424.941      238            26386.93       0.0091098185 
    239000  -10469.201      46.479767     -10422.721      239            26496.921      0.0090916284 
    240000  -10468.523      45.130882     -10423.393      240            26606.688      0.0091102754 
    241000  -10471.042      44.135963     -10426.906      241            26716.672      0.0090922239 
    242000  -10469.02       45.306354     -10423.714      242            26828.125      0.0089723429 
    243000  -10470.341      43.65134      -10426.69       243            26938.265      0.0090794206 
    244000  -10468.65       44.404263     -10424.246      244            27048.856      0.0090422529 
    245000  -10469.104      43.374688     -10425.729      245            27159.242      0.0090591548 
    246000  -10468.354      43.849804     -10424.505      246            27270.988      0.0089488587 
    247000  -10469.281      43.685282     -10425.596      247            27381.759      0.0090276109 
    248000  -10467.356      44.167013     -10423.189      248            27490.636      0.0091847343 
    249000  -10469.483      45.733882     -10423.749      249            27599.879      0.0091538548 
    250000  -10471.514      43.799632     -10427.715      250            27710.862      0.0090103966 
    251000  -10469.73       45.557828     -10424.172      251            27821.311      0.0090539782 
    252000  -10470.335      44.132542     -10426.202      252            27932.895      0.0089618346 
    253000  -10468.288      46.344874     -10421.944      253            28044.015      0.0089992669 
    254000  -10469.484      43.721072     -10425.763      254            28154.695      0.0090350707 
    255000  -10468.04       43.948403     -10424.092      255            28265.607      0.0090161426 
    256000  -10468.803      43.321507     -10425.481      256            28376.258      0.0090374831 
    257000  -10468.22       44.877986     -10423.342      257            28488.444      0.0089137375 
    258000  -10469.043      43.809282     -10425.234      258            28599.94       0.0089689674 
    259000  -10468.883      46.186956     -10422.696      259            28712.646      0.0088725845 
    260000  -10470.941      44.337447     -10426.604      260            28823.303      0.0090369391 
    261000  -10469.762      45.517733     -10424.244      261            28936.091      0.0088662048 
    262000  -10471.152      44.464597     -10426.688      262            29047.927      0.0089416583 
    263000  -10470.229      46.462579     -10423.767      263            29160.167      0.0089095049 
    264000  -10468.718      44.12891      -10424.589      264            29271.169      0.0090088382 
    265000  -10468.738      45.199454     -10423.539      265            29382.026      0.0090206308 
    266000  -10468.425      44.280427     -10424.144      266            29493.386      0.0089798719 
    267000  -10468.806      41.73309      -10427.073      267            29603.95       0.0090445788 
    268000  -10468.74       44.418378     -10424.322      268            29715.02       0.0090032758 
    269000  -10471.293      45.739571     -10425.554      269            29826.659      0.0089574369 
    270000  -10467.56       44.721655     -10422.838      270            29937.135      0.0090517479 
    271000  -10469.301      44.642211     -10424.658      271            30047.545      0.0090571275 
    272000  -10471.228      43.88717      -10427.341      272            30158.118      0.0090438169 
    273000  -10468.676      45.067118     -10423.609      273            30268.61       0.0090504209 
    274000  -10470.224      44.634297     -10425.589      274            30379.815      0.0089924545 
    275000  -10470.07       46.001389     -10424.069      275            30490.736      0.0090154032 
    276000  -10471.349      44.83801      -10426.511      276            30601.159      0.009056056  
    277000  -10468.095      47.376453     -10420.719      277            30711.751      0.009042289  
    278000  -10470.377      44.757817     -10425.619      278            30821.994      0.0090708753 
    279000  -10469.003      47.18083      -10421.822      279            30932.192      0.0090745682 
    280000  -10467.95       44.664535     -10423.285      280            31041.886      0.0091162926 
    281000  -10471.726      43.518778     -10428.207      281            31152.107      0.0090726353 
    282000  -10469.928      45.2144       -10424.714      282            31262.388      0.0090677447 
    283000  -10468.914      45.475574     -10423.438      283            31372.777      0.0090588919 
    284000  -10471.301      44.620224     -10426.68       284            31483.143      0.0090607334 
    285000  -10468.465      44.632895     -10423.833      285            31593.671      0.0090475008 
    286000  -10470.911      45.150579     -10425.761      286            31703.703      0.0090882579 
    287000  -10470.59       45.852566     -10424.738      287            31813.466      0.0091105674 
    288000  -10470.645      44.308311     -10426.337      288            31923.419      0.0090947482 
    289000  -10470.457      44.818732     -10425.638      289            32033.168      0.0091117327 
    290000  -10469.167      47.045309     -10422.122      290            32143.618      0.009053827  
    291000  -10469.703      44.428708     -10425.274      291            32254.192      0.0090437411 
    292000  -10470.702      41.709829     -10428.992      292            32364.525      0.0090635038 
    293000  -10469.527      44.693162     -10424.834      293            32474.813      0.0090671406 
    294000  -10468.785      44.101669     -10424.684      294            32585.146      0.0090634586 
    295000  -10469.935      45.373118     -10424.562      295            32696.11       0.0090119281 
    296000  -10468.915      45.777991     -10423.137      296            32806.583      0.0090519847 
    297000  -10470.989      43.431592     -10427.558      297            32916.943      0.0090612733 
    298000  -10469.147      44.426045     -10424.721      298            33027.404      0.0090530029 
    299000  -10471.197      43.682685     -10427.514      299            33137.938      0.0090469993 
    300000  -10467.589      43.932189     -10423.656      300            33248.374      0.0090549728 
    301000  -10470.938      43.714665     -10427.223      301            33359.276      0.0090169601 
    302000  -10471.477      44.694285     -10426.783      302            33469.998      0.0090316279 
    303000  -10469.417      44.511341     -10424.906      303            33580.423      0.0090559149 
    304000  -10469.579      43.122295     -10426.457      304            33690.745      0.0090644061 
    305000  -10469.897      45.087049     -10424.81       305            33801.867      0.0089990761 
    306000  -10470.297      43.289653     -10427.007      306            33912.804      0.0090141806 
    307000  -10470.949      45.205035     -10425.744      307            34023.46       0.0090369901 
    308000  -10469.085      42.510082     -10426.574      308            34133.691      0.0090718736 
    309000  -10470.244      45.164201     -10425.079      309            34243.574      0.0091005716 
    310000  -10472.772      46.358775     -10426.413      310            34353.443      0.0091017945 
    311000  -10470.397      44.723463     -10425.673      311            34463.535      0.0090833029 
    312000  -10470.811      45.889468     -10424.921      312            34574.001      0.0090525348 
    313000  -10469.743      46.551675     -10423.192      313            34683.137      0.0091628631 
    314000  -10468.82       44.085541     -10424.734      314            34792.302      0.0091604279 
    315000  -10467.999      43.015815     -10424.984      315            34902.003      0.0091157017 
    316000  -10470.105      46.861908     -10423.243      316            35010.973      0.0091768192 
    317000  -10470.317      42.842734     -10427.474      317            35119.758      0.0091925183 
    318000  -10469.968      45.96082      -10424.007      318            35229.345      0.0091251616 
    319000  -10469.489      45.541951     -10423.947      319            35338.891      0.0091285191 
    320000  -10471.674      45.762456     -10425.912      320            35447.775      0.0091841406 
    321000  -10467.496      44.204344     -10423.292      321            35556.816      0.0091708418 
    322000  -10468.915      43.416935     -10425.498      322            35665.835      0.0091726849 
    323000  -10472.017      45.457102     -10426.56       323            35775.179      0.0091455108 
    324000  -10469.752      46.122091     -10423.63       324            35884.058      0.0091845094 
    325000  -10469.176      42.306549     -10426.87       325            35992.349      0.009234311  
    326000  -10469.043      45.040214     -10424.003      326            36100.483      0.0092478219 
    327000  -10470.501      45.41572      -10425.085      327            36208.781      0.0092337526 
    328000  -10469.783      44.774368     -10425.009      328            36316.802      0.0092574827 
    329000  -10468.944      44.713221     -10424.231      329            36425.053      0.00923778   
    330000  -10469.15       42.99222      -10426.158      330            36532.868      0.0092751328 
    331000  -10468.871      45.322088     -10423.549      331            36640.879      0.0092583217 
    332000  -10469.302      43.228016     -10426.074      332            36748.829      0.0092636044 
    333000  -10471.187      46.799161     -10424.388      333            36857.165      0.0092305034 
    334000  -10468.891      43.522847     -10425.368      334            36965.226      0.0092540529 
    335000  -10468.813      43.819534     -10424.994      335            37073.191      0.0092622479 
    336000  -10467.456      45.84987      -10421.606      336            37181.326      0.009247656  
    337000  -10469.939      44.839411     -10425.1        337            37289.873      0.0092126484 
    338000  -10468.876      45.160582     -10423.716      338            37398.523      0.0092038648 
    339000  -10471.69       44.880629     -10426.809      339            37507.613      0.0091667407 
    340000  -10467.647      43.903074     -10423.744      340            37616.989      0.0091428031 
    341000  -10469.314      44.692455     -10424.622      341            37726.292      0.0091488118 
    342000  -10470.128      43.923415     -10426.205      342            37836.039      0.0091118701 
    343000  -10469.665      45.397579     -10424.268      343            37945.741      0.0091156396 
    344000  -10468.547      44.364502     -10424.183      344            38054.805      0.0091688944 
    345000  -10468.329      44.16497      -10424.164      345            38164.124      0.009147582  
    346000  -10470.804      43.34369      -10427.461      346            38273.187      0.0091689729 
    347000  -10469.199      45.726569     -10423.473      347            38382.421      0.0091547001 
    348000  -10468.685      43.245299     -10425.44       348            38491.044      0.0092061238 
    349000  -10469.146      46.390094     -10422.756      349            38599.953      0.0091820201 
    350000  -10470.302      43.854583     -10426.447      350            38708.907      0.0091781451 
    351000  -10468.243      45.205529     -10423.038      351            38817.984      0.0091678459 
    352000  -10468.162      43.052362     -10425.11       352            38926.58       0.0092084368 
    353000  -10469.777      46.498537     -10423.278      353            39034.636      0.0092544528 
    354000  -10469.236      42.948714     -10426.287      354            39142.995      0.0092285687 
    355000  -10467.583      43.744967     -10423.838      355            39251.118      0.0092487808 
    356000  -10471.084      43.0811       -10428.003      356            39360.114      0.0091745813 
    357000  -10467.9        45.115945     -10422.784      357            39468.333      0.0092405797 
    358000  -10469.645      44.330032     -10425.315      358            39576.995      0.009202841  
    359000  -10469.984      44.986316     -10424.998      359            39685.518      0.0092145951 
    360000  -10469.015      45.079999     -10423.935      360            39794.048      0.0092140996 
    361000  -10471.845      45.775226     -10426.07       361            39902.804      0.0091948397 
    362000  -10469.472      45.381488     -10424.091      362            40011.944      0.0091625336 
    363000  -10471.332      45.038357     -10426.293      363            40120.474      0.0092141131 
    364000  -10469.753      46.377352     -10423.376      364            40229.54       0.0091687408 
    365000  -10469.839      43.162476     -10426.677      365            40337.968      0.0092227323 
    366000  -10470.398      47.625062     -10422.773      366            40446.131      0.0092452608 
    367000  -10469.317      45.419354     -10423.898      367            40555.298      0.009160281  
    368000  -10470.216      44.394249     -10425.822      368            40663.849      0.00921224   
    369000  -10468.347      44.649775     -10423.698      369            40772.302      0.0092205787 
    370000  -10470.814      43.598125     -10427.216      370            40880.738      0.0092220405 
    371000  -10469.243      45.594616     -10423.648      371            40989.399      0.0092029133 
    372000  -10469.654      42.455903     -10427.198      372            41098.756      0.0091443695 
    373000  -10468.553      44.416804     -10424.136      373            41208.134      0.0091426636 
    374000  -10469.988      43.25727      -10426.73       374            41317.046      0.0091816984 
    375000  -10468.235      43.853197     -10424.382      375            41425.51       0.009219647  
    376000  -10470.118      42.181972     -10427.936      376            41534.093      0.0092095569 
    377000  -10469.817      44.621936     -10425.195      377            41642.601      0.0092159062 
    378000  -10470.107      43.173463     -10426.933      378            41751.906      0.0091487409 
    379000  -10468.877      45.945852     -10422.931      379            41860.788      0.0091842575 
    380000  -10470.906      45.794591     -10425.111      380            41969.187      0.0092251765 
    381000  -10468.999      44.064917     -10424.934      381            42077.591      0.0092247435 
    382000  -10471.027      43.006692     -10428.02       382            42186.149      0.0092116061 
    383000  -10468.914      44.378383     -10424.536      383            42294.84       0.0092003897 
    384000  -10471.038      45.439467     -10425.598      384            42403.647      0.0091906448 
    385000  -10469.153      45.254645     -10423.899      385            42512.375      0.0091972399 
    386000  -10471.884      41.614039     -10430.27       386            42621.841      0.009135295  
    387000  -10468.79       43.981562     -10424.809      387            42731.809      0.0090934747 
    388000  -10470.861      43.932521     -10426.928      388            42841.069      0.0091525127 
    389000  -10469.078      44.930363     -10424.148      389            42951.255      0.0090755714 
    390000  -10470.061      44.341398     -10425.72       390            43060.848      0.0091246689 
    391000  -10467.891      43.482351     -10424.408      391            43174.21       0.0088213059 
    392000  -10470.159      42.480065     -10427.679      392            43287.158      0.0088536383 
    393000  -10469.001      44.955058     -10424.046      393            43401.597      0.0087382419 
    394000  -10470.243      44.199558     -10426.043      394            43513.782      0.0089139078 
    395000  -10469.19       45.02094      -10424.169      395            43626.502      0.0088714966 
    396000  -10469.03       43.250044     -10425.78       396            43741.211      0.0087177325 
    397000  -10470.692      45.345608     -10425.347      397            43856.617      0.0086650473 
    398000  -10470.927      43.642331     -10427.285      398            43971.141      0.0087317917 
    399000  -10469.286      43.021254     -10426.265      399            44086.342      0.0086804628 
    400000  -10470.614      42.589579     -10428.024      400            44202.669      0.008596453  
    401000  -10469.301      42.463571     -10426.838      401            44318.139      0.00866026   
    402000  -10469.93       46.301837     -10423.628      402            44433.663      0.0086562687 
    403000  -10468.079      44.000139     -10424.079      403            44549.834      0.0086079331 
    404000  -10469.724      43.667716     -10426.057      404            44665.754      0.0086266461 
    405000  -10467.547      43.545562     -10424.002      405            44782.045      0.0085991541 
    406000  -10470.106      44.077774     -10426.028      406            44898.356      0.0085976202 
    407000  -10470.097      45.47937      -10424.618      407            45015.892      0.0085080194 
    408000  -10471.109      42.99827      -10428.111      408            45133.932      0.0084717067 
    409000  -10470.625      45.624372     -10425.001      409            45252.562      0.0084295553 
    410000  -10472.853      44.254229     -10428.599      410            45371.39       0.0084155416 
    411000  -10469.661      44.915409     -10424.746      411            45490.573      0.0083904753 
    412000  -10469.475      43.380891     -10426.094      412            45610.084      0.0083674386 
    413000  -10469.135      45.785677     -10423.349      413            45731.768      0.0082180101 
    414000  -10469.016      42.624949     -10426.391      414            45851.863      0.0083267145 
    415000  -10469.669      45.48291      -10424.186      415            45971.792      0.0083382658 
    416000  -10470.78       43.254255     -10427.525      416            46090.602      0.0084167818 
    417000  -10469.719      44.847115     -10424.872      417            46208.882      0.0084545689 
    418000  -10470.275      44.575863     -10425.699      418            46327.112      0.0084580909 
    419000  -10469.677      45.528349     -10424.149      419            46444.324      0.0085315372 
    420000  -10470.896      45.35904      -10425.537      420            46561.684      0.0085208043 
    421000  -10469.518      46.377734     -10423.14       421            46679.86       0.0084619262 
    422000  -10470.833      44.478372     -10426.355      422            46797.945      0.0084684523 
    423000  -10468.775      44.481613     -10424.293      423            46916.817      0.0084124388 
    424000  -10471.751      45.670686     -10426.08       424            47036.223      0.0083748088 
    425000  -10469.962      45.832704     -10424.129      425            47154.683      0.0084416215 
    426000  -10470.576      44.083965     -10426.492      426            47272.34       0.0084993033 
    427000  -10470.641      45.734778     -10424.906      427            47391.927      0.0083621043 
    428000  -10471.386      44.007632     -10427.378      428            47511.956      0.0083313193 
    429000  -10470.277      46.60723      -10423.67       429            47632.669      0.008284114  
    430000  -10469.871      44.707712     -10425.163      430            47755.366      0.0081501512 
    431000  -10471.083      46.282498     -10424.8        431            47876.121      0.0082812302 
    432000  -10470.228      43.535161     -10426.693      432            47996.792      0.0082870113 
    433000  -10469.002      43.90426      -10425.097      433            48116.264      0.0083701758 
    434000  -10469.944      44.679356     -10425.265      434            48234.685      0.0084444115 
    435000  -10470.936      43.527816     -10427.408      435            48352.672      0.0084755461 
    436000  -10470.152      45.765146     -10424.387      436            48470.34       0.0084985114 
    437000  -10469.714      43.0995       -10426.615      437            48588.231      0.0084823655 
    438000  -10469.724      45.291695     -10424.432      438            48706.285      0.0084707372 
    439000  -10472.13       44.322174     -10427.808      439            48824.62       0.0084505676 
    440000  -10470.686      45.819693     -10424.866      440            48941.977      0.0085209683 
    441000  -10472.058      45.280648     -10426.777      441            49058.474      0.0085839595 
    442000  -10466.624      44.647508     -10421.977      442            49175          0.0085817433 
    443000  -10469.66       43.996911     -10425.663      443            49291.359      0.0085940987 
    444000  -10469.146      45.007307     -10424.138      444            49406.549      0.0086812924 
    445000  -10468.985      44.046837     -10424.938      445            49521.471      0.0087015725 
    446000  -10469.845      42.501412     -10427.344      446            49636.156      0.008719584  
    447000  -10468.364      45.692799     -10422.672      447            49748.875      0.0088715671 
    448000  -10470.624      43.932033     -10426.692      448            49862.278      0.0088181087 
    449000  -10469.414      45.153662     -10424.26       449            49975.793      0.0088093938 
    450000  -10469.94       44.225586     -10425.714      450            50088.075      0.0089062031 
    451000  -10468.776      45.199191     -10423.577      451            50201.214      0.0088386657 
    452000  -10469.322      44.69062      -10424.632      452            50313.527      0.0089036778 
    453000  -10471.483      43.914396     -10427.569      453            50426.373      0.0088616029 
    454000  -10470.882      46.253654     -10424.628      454            50537.405      0.0090064907 
    455000  -10469.999      45.679243     -10424.32       455            50649.232      0.0089423437 
    456000  -10470.406      44.179336     -10426.227      456            50760.812      0.0089621897 
    457000  -10469.095      44.930588     -10424.164      457            50872.301      0.0089695183 
    458000  -10472.45       44.811292     -10427.639      458            50982.045      0.0091120499 
    459000  -10469.113      45.127383     -10423.986      459            51091.035      0.0091751723 
    460000  -10471.846      43.188698     -10428.658      460            51199.918      0.0091842053 
    461000  -10469.586      45.125655     -10424.461      461            51308.458      0.0092132142 
    462000  -10469.792      43.963958     -10425.828      462            51418.906      0.0090540313 
    463000  -10471.09       43.178026     -10427.912      463            51527.976      0.0091683797 
    464000  -10468.64       44.944251     -10423.696      464            51636.425      0.0092209207 
    465000  -10468.323      45.006804     -10423.316      465            51745.095      0.009202157  
    466000  -10470.705      45.648363     -10425.057      466            51853.746      0.0092038104 
    467000  -10471.119      46.007701     -10425.111      467            51962.367      0.0092063445 
    468000  -10469.399      45.001408     -10424.397      468            52071.362      0.0091746765 
    469000  -10468.841      43.577157     -10425.264      469            52179.606      0.0092384332 
    470000  -10471.943      43.567582     -10428.376      470            52287.642      0.009256135  
    471000  -10469.776      45.425459     -10424.35       471            52396.139      0.0092168577 
    472000  -10471.846      44.243123     -10427.603      472            52504.117      0.009261159  
    473000  -10468.805      43.620437     -10425.185      473            52612.54       0.0092231509 
    474000  -10468.399      44.414975     -10423.984      474            52720.602      0.009253944  
    475000  -10469.618      45.17054      -10424.447      475            52828.915      0.0092325123 
    476000  -10469.896      41.03361      -10428.862      476            52936.931      0.0092578406 
    477000  -10470.674      45.982154     -10424.692      477            53045.155      0.0092401053 
    478000  -10469.155      46.41387      -10422.742      478            53153.737      0.0092096304 
    479000  -10471.122      44.961673     -10426.161      479            53262.512      0.0091932844 
    480000  -10469.493      45.278707     -10424.215      480            53371.03       0.0092150651 
    481000  -10471.303      45.224708     -10426.078      481            53479.515      0.0092179132 
    482000  -10470.379      47.822999     -10422.556      482            53588.362      0.0091871756 
    483000  -10469.718      43.932372     -10425.785      483            53696.871      0.0092158296 
    484000  -10469.301      46.088608     -10423.212      484            53807.014      0.0090791073 
    485000  -10471.176      44.458516     -10426.717      485            53916.426      0.0091397739 
    486000  -10467.281      44.093145     -10423.188      486            54025.579      0.0091614734 
    487000  -10469.761      42.325561     -10427.435      487            54135.878      0.0090662309 
    488000  -10470.707      46.325568     -10424.381      488            54245.71       0.0091047878 
    489000  -10470.456      44.583749     -10425.872      489            54357.913      0.0089124733 
    490000  -10468.57       46.076233     -10422.493      490            54468.56       0.0090377154 
    491000  -10469.299      43.810684     -10425.488      491            54581.885      0.008824142  
    492000  -10467.436      47.217622     -10420.219      492            54693.567      0.0089540197 
    493000  -10470.848      44.672713     -10426.175      493            54807.462      0.0087800049 
    494000  -10468.094      45.100642     -10422.994      494            54920.366      0.0088571287 
    495000  -10470.334      44.018106     -10426.315      495            55035.484      0.0086867401 
    496000  -10469.248      44.848445     -10424.4        496            55149.725      0.0087533656 
    497000  -10470.257      42.640157     -10427.617      497            55264.418      0.0087189907 
    498000  -10468.322      44.814662     -10423.508      498            55378.625      0.0087560205 
    499000  -10471.087      44.869935     -10426.217      499            55492.397      0.0087894667 
    500000  -10467.999      43.738405     -10424.261      500            55606.253      0.0087830364 
    501000  -10469.497      43.397719     -10426.1        501            55719.513      0.0088292354 
    502000  -10469.313      43.205687     -10426.107      502            55832.714      0.0088338984 
    503000  -10470.432      44.327961     -10426.104      503            55948.023      0.0086723148 
    504000  -10469.264      45.52041      -10423.744      504            56059.081      0.0090042709 
    505000  -10468.967      44.602655     -10424.365      505            56172.668      0.0088038325 
    506000  -10469.414      43.257835     -10426.156      506            56282.952      0.0090675562 
    507000  -10469.12       45.707017     -10423.413      507            56396.251      0.0088262049 
    508000  -10470.375      44.315969     -10426.059      508            56507.794      0.008965081  
    509000  -10469.435      46.469696     -10422.965      509            56619.665      0.0089388683 
    510000  -10471.082      43.078525     -10428.004      510            56731.054      0.0089775494 
    511000  -10469.724      44.706759     -10425.017      511            56841.716      0.0090365706 
    512000  -10470.101      45.199583     -10424.902      512            56951.477      0.0091106728 
    513000  -10468.585      44.372576     -10424.212      513            57060.157      0.0092013232 
    514000  -10469.805      44.084438     -10425.72       514            57168.771      0.0092069797 
    515000  -10467.697      46.126569     -10421.571      515            57277.485      0.0091984052 
    516000  -10470.099      43.683999     -10426.415      516            57387.411      0.0090969928 
    517000  -10468.615      43.691833     -10424.923      517            57495.858      0.0092211244 
    518000  -10465.89       44.69338      -10421.197      518            57604.392      0.0092136999 
    519000  -10468.582      44.58005      -10424.002      519            57712.79       0.0092252838 
    520000  -10469.631      41.96377      -10427.667      520            57820.94       0.0092464021 
    521000  -10469.545      45.413454     -10424.131      521            57929.21       0.0092361666 
    522000  -10468.681      43.954489     -10424.726      522            58037.911      0.0091995439 
    523000  -10468.362      43.809461     -10424.552      523            58145.956      0.0092554547 
    524000  -10468.092      44.622666     -10423.47       524            58254.514      0.0092116426 
    525000  -10471.041      44.087577     -10426.953      525            58362.182      0.0092877686 
    526000  -10466.207      42.427262     -10423.78       526            58470.404      0.0092402749 
    527000  -10469.957      43.845746     -10426.112      527            58578.646      0.0092386143 
    528000  -10469.044      45.791641     -10423.252      528            58686.702      0.0092544372 
    529000  -10469.446      43.606492     -10425.839      529            58794.462      0.0092798638 
    530000  -10466.423      44.021742     -10422.401      530            58903.33       0.0091854179 
    531000  -10468.319      43.703766     -10424.615      531            59011.149      0.0092748169 
    532000  -10469.421      43.636826     -10425.784      532            59120.478      0.0091467244 
    533000  -10470.854      45.481736     -10425.372      533            59229.495      0.0091729037 
    534000  -10468.441      43.844327     -10424.597      534            59338.924      0.0091383039 
    535000  -10469.831      45.484455     -10424.347      535            59448.247      0.0091471895 
    536000  -10470.999      44.285967     -10426.713      536            59557.875      0.0091217414 
    537000  -10469.81       45.433714     -10424.377      537            59668.357      0.0090512635 
    538000  -10468.888      44.589041     -10424.299      538            59780.016      0.008955857  
    539000  -10468.941      44.695534     -10424.246      539            59893.86       0.0087839576 
    540000  -10470.725      45.72061      -10425.005      540            60006.345      0.008890103  
    541000  -10469.028      45.576376     -10423.452      541            60120.992      0.0087223956 
    542000  -10468.704      44.987228     -10423.716      542            60231.84       0.0090213375 
    543000  -10469.511      45.894465     -10423.617      543            60344.073      0.0089100534 
    544000  -10470.273      42.538628     -10427.734      544            60454.743      0.0090359008 
    545000  -10469.462      45.724646     -10423.737      545            60566.66       0.0089351959 
    546000  -10470.426      48.872802     -10421.554      546            60678.713      0.0089243192 
    547000  -10469.445      44.444494     -10425          547            60791.919      0.0088334214 
    548000  -10465.511      46.427712     -10419.083      548            60905.084      0.0088366605 
    549000  -10470.125      44.02712      -10426.098      549            61022.145      0.0085425715 
    550000  -10469.678      43.860957     -10425.817      550            61139.789      0.008500222  
    551000  -10467.129      41.271396     -10425.858      551            61257.633      0.0084857975 
    552000  -10469.169      43.341527     -10425.827      552            61375.75       0.0084661876 
    553000  -10469.402      47.296203     -10422.105      553            61493.496      0.0084928818 
    554000  -10469.245      43.95093      -10425.294      554            61613.452      0.008336331  
    555000  -10469.718      46.344242     -10423.374      555            61732.948      0.0083685101 
    556000  -10470.781      42.165719     -10428.615      556            61853.339      0.0083062651 
    557000  -10467.747      44.460322     -10423.287      557            61973.316      0.0083349143 
    558000  -10469.168      42.810004     -10426.358      558            62093.543      0.0083176519 
    559000  -10469.096      44.625173     -10424.471      559            62213.206      0.0083567875 
    560000  -10468.688      46.139426     -10422.549      560            62331.688      0.0084400977 
    561000  -10470.728      44.743894     -10425.984      561            62450.944      0.0083853367 
    562000  -10470.25       44.603541     -10425.646      562            62570.253      0.0083815388 
    563000  -10469.45       44.553413     -10424.897      563            62689.021      0.0084197933 
    564000  -10470.136      42.892661     -10427.244      564            62807.851      0.0084153932 
    565000  -10471.143      45.809035     -10425.334      565            62926.822      0.0084054003 
    566000  -10469.811      46.466756     -10423.344      566            63044.814      0.0084751955 
    567000  -10468.665      43.875108     -10424.79       567            63163.527      0.0084236814 
    568000  -10470.084      45.637855     -10424.446      568            63281.297      0.0084910676 
    569000  -10471.332      43.284216     -10428.048      569            63400.301      0.0084030895 
    570000  -10471.334      45.121516     -10426.213      570            63518.225      0.008480033  
    571000  -10469.146      44.964448     -10424.182      571            63636.322      0.008467651  
    572000  -10471.735      45.297797     -10426.437      572            63757.495      0.0082526825 
    573000  -10469.307      45.841556     -10423.465      573            63879.868      0.0081716911 
    574000  -10469.863      45.599836     -10424.263      574            64002.338      0.0081653018 
    575000  -10470.043      44.797731     -10425.246      575            64123.499      0.0082534769 
    576000  -10468.648      44.622079     -10424.026      576            64244.179      0.0082863263 
    577000  -10471.941      46.629561     -10425.311      577            64365.133      0.0082676125 
    578000  -10469.833      45.474329     -10424.358      578            64485.002      0.0083424912 
    579000  -10471.424      46.752286     -10424.672      579            64603.805      0.008417294  
    580000  -10469.893      43.822306     -10426.071      580            64722.185      0.008447316  
    581000  -10470.007      45.370562     -10424.637      581            64840.865      0.0084260436 
    582000  -10472.59       44.328028     -10428.262      582            64959.582      0.0084234052 
    583000  -10468.328      44.673616     -10423.654      583            65079.456      0.0083420816 
    584000  -10468.95       42.378124     -10426.572      584            65196.937      0.0085120153 
    585000  -10468.843      44.817641     -10424.025      585            65314.57       0.0085010339 
    586000  -10470.225      43.117829     -10427.107      586            65432.546      0.0084762711 
    587000  -10468.86       44.00775      -10424.853      587            65551.557      0.0084026008 
    588000  -10469.451      44.601237     -10424.85       588            65670.761      0.0083889671 
    589000  -10470.469      43.034495     -10427.434      589            65790.417      0.0083573161 
    590000  -10469.668      45.584551     -10424.083      590            65910.276      0.0083431226 
    591000  -10470.935      43.438663     -10427.497      591            66029.481      0.0083889406 
    592000  -10469.649      45.501197     -10424.147      592            66148.991      0.008367496  
    593000  -10469.748      45.219903     -10424.528      593            66266.337      0.0085218066 
    594000  -10470.406      44.477298     -10425.928      594            66383.081      0.0085656981 
    595000  -10467.999      45.18183      -10422.817      595            66499.092      0.0086199059 
    596000  -10468.947      42.844719     -10426.102      596            66612.93       0.0087844194 
    597000  -10468.349      44.976569     -10423.373      597            66726.034      0.0088413854 
    598000  -10468.031      42.038926     -10425.992      598            66838.098      0.0089235179 
    599000  -10469.183      45.051029     -10424.132      599            66949.592      0.0089690705 
    600000  -10471.749      44.081988     -10427.667      600            67061.667      0.0089226056 
    601000  -10469.486      43.089572     -10426.396      601            67173.735      0.0089231331 
    602000  -10470.199      44.01687      -10426.182      602            67286.615      0.0088589675 
    603000  -10469.347      45.989426     -10423.358      603            67399.549      0.0088547071 
    604000  -10471.39       45.533449     -10425.856      604            67512.882      0.0088236103 
    605000  -10467.839      43.857049     -10423.982      605            67626.4        0.008809189  
    606000  -10471.82       44.429043     -10427.391      606            67739.834      0.0088156907 
    607000  -10468.869      43.531225     -10425.338      607            67853.916      0.0087656274 
    608000  -10466.627      44.649794     -10421.977      608            67967.065      0.0088378684 
    609000  -10469.937      44.897824     -10425.039      609            68080.96       0.0087800036 
    610000  -10469.191      44.774258     -10424.416      610            68194.145      0.0088350982 
    611000  -10469.796      42.292935     -10427.503      611            68306.519      0.0088988659 
    612000  -10468.501      44.759099     -10423.742      612            68417.742      0.0089909872 
    613000  -10472.584      43.723055     -10428.861      613            68528.315      0.00904378   
    614000  -10469.787      44.778056     -10425.009      614            68638.385      0.0090851001 
    615000  -10470.199      46.18467      -10424.014      615            68748.104      0.0091142077 
    616000  -10470.315      44.572973     -10425.742      616            68857.625      0.0091306356 
    617000  -10469.879      43.924349     -10425.955      617            68966.261      0.0092050544 
    618000  -10469.256      43.966384     -10425.289      618            69074.949      0.0092006975 
    619000  -10470.908      44.361619     -10426.547      619            69183.54       0.0092088172 
    620000  -10471.334      45.05209      -10426.282      620            69293.066      0.0091302672 
    621000  -10468.5        47.399478     -10421.1        621            69402.158      0.0091665747 
    622000  -10468.65       43.266372     -10425.384      622            69511.525      0.0091434979 
    623000  -10469.267      43.184877     -10426.082      623            69620.322      0.0091914782 
    624000  -10468.501      45.893931     -10422.607      624            69729.46       0.0091626908 
    625000  -10469.998      45.604052     -10424.394      625            69838.97       0.0091315581 
    626000  -10471.152      44.582963     -10426.569      626            69948.853      0.0091006246 
    627000  -10469.7        45.488266     -10424.212      627            70058.413      0.0091274039 
    628000  -10468.814      43.254508     -10425.56       628            70167.879      0.0091352814 
    629000  -10469.85       44.319998     -10425.53       629            70277.519      0.0091207643 
    630000  -10467.622      43.159279     -10424.463      630            70387.505      0.0090920181 
    631000  -10467.489      43.998604     -10423.491      631            70496.956      0.0091365472 
    632000  -10469.303      44.402574     -10424.901      632            70607.3        0.0090625575 
    633000  -10468.477      44.824933     -10423.652      633            70716.892      0.0091248009 
    634000  -10468.026      44.836904     -10423.189      634            70826.688      0.0091077385 
    635000  -10472.123      43.44336      -10428.68       635            70936.64       0.0090949302 
    636000  -10469.192      45.411247     -10423.78       636            71046.566      0.009096979  
    637000  -10466.938      41.336125     -10425.602      637            71157.168      0.0090414151 
    638000  -10469.225      43.57936      -10425.646      638            71268.916      0.0089487082 
    639000  -10468.735      45.076677     -10423.658      639            71380.41       0.0089691066 
    640000  -10470.055      45.608413     -10424.447      640            71490.848      0.0090548305 
    641000  -10470.148      44.497632     -10425.651      641            71602.757      0.0089358349 
    642000  -10468.096      46.284075     -10421.812      642            71715.19       0.0088942231 
    643000  -10470.445      45.015173     -10425.43       643            71828.871      0.0087965199 
    644000  -10470.488      44.621087     -10425.867      644            71942.069      0.0088340994 
    645000  -10470.243      44.174955     -10426.068      645            72054.871      0.0088650934 
    646000  -10468.304      43.438385     -10424.865      646            72167.875      0.0088492676 
    647000  -10469.479      44.36365      -10425.115      647            72279.43       0.0089641639 
    648000  -10470.961      44.114663     -10426.847      648            72390.233      0.0090250271 
    649000  -10468.404      45.148944     -10423.255      649            72499.553      0.0091474482 
    650000  -10470.009      42.815954     -10427.193      650            72608.705      0.0091615804 
    651000  -10468.837      44.590484     -10424.247      651            72717.742      0.0091711707 
    652000  -10470.289      43.549893     -10426.739      652            72826.031      0.0092345417 
    653000  -10468.339      43.376261     -10424.962      653            72934.558      0.0092142744 
    654000  -10469.577      44.956392     -10424.621      654            73043.785      0.0091552594 
    655000  -10468.646      45.781805     -10422.864      655            73152.234      0.0092209493 
    656000  -10471.283      44.90998      -10426.373      656            73260.768      0.0092136442 
    657000  -10468.99       42.995501     -10425.995      657            73368.916      0.0092466542 
    658000  -10471.618      44.965386     -10426.653      658            73477.124      0.0092414477 
    659000  -10469.941      44.719833     -10425.221      659            73586.225      0.0091658069 
    660000  -10469.874      44.627923     -10425.246      660            73694.866      0.0092046597 
    661000  -10469.67       43.193396     -10426.476      661            73803.518      0.009203636  
    662000  -10468.396      44.742481     -10423.653      662            73912.412      0.0091832293 
    663000  -10470.624      45.49145      -10425.133      663            74020.727      0.009232357  
    664000  -10468.166      45.152675     -10423.014      664            74129.158      0.0092224401 
    665000  -10470.43       43.695933     -10426.734      665            74238.003      0.0091874445 
    666000  -10468.75       44.969035     -10423.781      666            74346.86       0.0091863604 
    667000  -10470.898      45.694258     -10425.204      667            74456.005      0.0091620556 
    668000  -10469.322      44.247381     -10425.075      668            74566.185      0.0090761099 
    669000  -10471.541      44.770361     -10426.771      669            74676.87       0.009034619  
    670000  -10470.737      44.456524     -10426.281      670            74787.408      0.0090466978 
    671000  -10469.683      43.877266     -10425.806      671            74897.957      0.0090457239 
    672000  -10468.763      44.619705     -10424.144      672            75008.714      0.0090287647 
    673000  -10469.901      44.878171     -10425.022      673            75119.449      0.0090306282 
    674000  -10470.036      43.804223     -10426.232      674            75230.439      0.0090097763 
    675000  -10468.366      45.807775     -10422.558      675            75341.06       0.0090398635 
    676000  -10470.499      44.87009      -10425.629      676            75451.483      0.0090560841 
    677000  -10470.378      46.275489     -10424.103      677            75561.832      0.0090621792 
    678000  -10469.047      45.160072     -10423.887      678            75671.898      0.0090854511 
    679000  -10471.046      43.959968     -10427.086      679            75782.563      0.0090363138 
    680000  -10470.742      45.670564     -10425.071      680            75892.577      0.0090896889 
    681000  -10470.221      44.213321     -10426.008      681            76002.635      0.0090861152 
    682000  -10471.197      43.819507     -10427.377      682            76112.018      0.0091422465 
    683000  -10469.482      44.124051     -10425.358      683            76221.507      0.0091333007 
    684000  -10470.308      44.027465     -10426.28       684            76330.829      0.0091472643 
    685000  -10468.061      45.577031     -10422.484      685            76440.237      0.00914013   
    686000  -10470.087      46.273885     -10423.813      686            76549.978      0.0091124068 
    687000  -10471.517      44.457739     -10427.06       687            76659.373      0.009141175  
    688000  -10468.895      45.493382     -10423.402      688            76769.259      0.0091002965 
    689000  -10468.212      44.986018     -10423.226      689            76878.52       0.0091524324 
    690000  -10470.55       44.088078     -10426.462      690            76987.751      0.0091549154 
    691000  -10468.634      46.299916     -10422.334      691            77097.343      0.0091247466 
    692000  -10470.273      46.040809     -10424.232      692            77206.949      0.0091235551 
    693000  -10471.734      43.443884     -10428.29       693            77316.153      0.0091571625 
    694000  -10469.208      44.786166     -10424.422      694            77425.224      0.0091683643 
    695000  -10470.972      45.285199     -10425.687      695            77534.62       0.0091411488 
    696000  -10466.976      45.192272     -10421.783      696            77644.014      0.009141235  
    697000  -10469.562      45.091806     -10424.47       697            77754.136      0.0090808307 
    698000  -10471.639      44.009212     -10427.63       698            77864.227      0.0090833889 
    699000  -10468.762      44.659166     -10424.103      699            77974.358      0.0090800673 
    700000  -10470.284      42.561088     -10427.723      700            78084.857      0.0090499254 
    701000  -10471.049      45.727843     -10425.321      701            78195.565      0.0090326984 
    702000  -10470.641      45.293084     -10425.348      702            78305.862      0.009066462  
    703000  -10468.952      44.764        -10424.188      703            78416.707      0.0090215909 
    704000  -10470.649      43.185674     -10427.463      704            78526.351      0.0091204689 
    705000  -10470.131      44.794972     -10425.336      705            78635.449      0.0091660185 
    706000  -10471.438      44.805732     -10426.632      706            78743.615      0.0092450828 
    707000  -10468.425      47.666086     -10420.759      707            78851.478      0.0092710456 
    708000  -10469.519      43.171514     -10426.347      708            78959.614      0.0092475573 
    709000  -10470.049      44.986501     -10425.062      709            79067.387      0.0092787723 
    710000  -10472.04       44.536121     -10427.504      710            79174.87       0.0093038597 
    711000  -10469.327      44.607082     -10424.72       711            79282.491      0.0092917928 
    712000  -10470.74       43.714895     -10427.025      712            79390.362      0.0092703835 
    713000  -10469.385      45.538053     -10423.847      713            79497.908      0.0092983671 
    714000  -10469.642      44.007933     -10425.634      714            79606.216      0.0092328784 
    715000  -10468.693      44.579611     -10424.114      715            79714.001      0.0092777125 
    716000  -10469.688      42.495443     -10427.192      716            79821.923      0.009266004  
    717000  -10468.87       45.082972     -10423.787      717            79930.138      0.0092408627 
    718000  -10472.039      42.398666     -10429.64       718            80038.468      0.0092310314 
    719000  -10469.063      44.082304     -10424.981      719            80146.978      0.0092157203 
    720000  -10471.929      43.11499      -10428.814      720            80255.405      0.0092227973 
    721000  -10469.694      45.174462     -10424.52       721            80363.92       0.0092153032 
    722000  -10470.805      44.787921     -10426.017      722            80472.346      0.009222922  
    723000  -10469.111      44.064969     -10425.046      723            80581.007      0.0092029028 
    724000  -10471.933      44.006555     -10427.926      724            80689.782      0.0091933057 
    725000  -10469.72       45.168316     -10424.552      725            80799.193      0.0091398649 
    726000  -10470.317      43.832197     -10426.485      726            80908.972      0.0091092194 
    727000  -10469.793      45.605091     -10424.188      727            81019.82       0.0090213502 
    728000  -10470.068      45.558588     -10424.51       728            81129.675      0.0091028822 
    729000  -10469.347      44.172987     -10425.174      729            81240.145      0.0090522654 
    730000  -10467.465      43.605183     -10423.86       730            81351.426      0.0089862454 
    731000  -10471.513      44.91519      -10426.598      731            81461.389      0.0090939972 
    732000  -10469.325      47.313445     -10422.012      732            81570.265      0.0091847067 
    733000  -10470.263      44.483683     -10425.78       733            81678.613      0.0092295425 
    734000  -10468.623      46.147647     -10422.475      734            81786.744      0.0092480434 
    735000  -10471.795      45.027284     -10426.768      735            81895.406      0.0092028356 
    736000  -10468.283      44.582193     -10423.701      736            82004.299      0.009183325  
    737000  -10469.889      44.353021     -10425.536      737            82111.979      0.0092868086 
    738000  -10469.786      45.926627     -10423.86       738            82219.994      0.0092579152 
    739000  -10469.156      44.341194     -10424.814      739            82327.828      0.00927356   
    740000  -10468.13       45.943877     -10422.186      740            82436.6        0.0091935279 
    741000  -10468.742      42.921437     -10425.821      741            82545.027      0.0092227556 
    742000  -10467.715      44.394832     -10423.32       742            82653.396      0.0092277733 
    743000  -10471.099      45.274486     -10425.824      743            82761.619      0.0092401847 
    744000  -10468.969      45.015392     -10423.954      744            82869.555      0.0092647828 
    745000  -10469.275      43.743145     -10425.532      745            82977.493      0.0092645317 
    746000  -10467.339      44.912222     -10422.426      746            83085.377      0.0092692169 
    747000  -10469.249      43.773173     -10425.475      747            83193.902      0.009214441  
[...]
   4888000  -10472.153      45.515068     -10426.638      4888           547486.23      0.0091553088 
   4889000  -10469.615      47.668726     -10421.946      4889           547595.48      0.0091529404 
   4890000  -10471.691      44.966074     -10426.725      4890           547704.05      0.0092104305 
   4891000  -10469.559      45.977855     -10423.581      4891           547812.91      0.0091865338 
   4892000  -10468.6        44.244476     -10424.356      4892           547921.41      0.0092168354 
   4893000  -10468.82       46.2673       -10422.553      4893           548029.95      0.009213169  
   4894000  -10470.031      44.932369     -10425.098      4894           548138.85      0.0091825921 
   4895000  -10470.693      45.884458     -10424.808      4895           548248.28      0.0091380244 
   4896000  -10469.605      43.490835     -10426.114      4896           548356.67      0.0092259322 
   4897000  -10469.777      46.451215     -10423.326      4897           548465.04      0.0092273945 
   4898000  -10469.017      43.923619     -10425.093      4898           548574.1       0.0091692257 
   4899000  -10469.972      46.655135     -10423.317      4899           548682.88      0.0091932779 
   4900000  -10469.181      45.846591     -10423.334      4900           548792.25      0.0091430402 
   4901000  -10469.247      44.139784     -10425.107      4901           548901.25      0.0091746034 
   4902000  -10468.298      43.153195     -10425.144      4902           549010.28      0.0091714636 
   4903000  -10467.603      44.557039     -10423.046      4903           549119.74      0.0091361022 
   4904000  -10469.69       43.570648     -10426.119      4904           549229.55      0.0091067696 
   4905000  -10466.67       44.525853     -10422.145      4905           549339.09      0.0091286503 
   4906000  -10468.081      44.213712     -10423.867      4906           549448.36      0.0091522216 
   4907000  -10466.659      43.515656     -10423.143      4907           549557.49      0.0091628998 
   4908000  -10469.81       45.264973     -10424.545      4908           549666.31      0.0091892605 
   4909000  -10467.6        46.873787     -10420.727      4909           549774.77      0.0092203415 
   4910000  -10469.698      45.53131      -10424.166      4910           549883.48      0.009198703  
   4911000  -10467.127      47.519984     -10419.607      4911           549992.08      0.0092084379 
   4912000  -10469.423      43.900944     -10425.523      4912           550100.09      0.009258459  
   4913000  -10468.081      44.303218     -10423.778      4913           550207.77      0.009286201  
   4914000  -10470.779      43.444136     -10427.335      4914           550315.58      0.0092756755 
   4915000  -10467.409      44.381379     -10423.028      4915           550423.75      0.0092445541 
   4916000  -10469.125      45.120841     -10424.004      4916           550531.68      0.0092656061 
   4917000  -10469.324      45.686417     -10423.637      4917           550640.11      0.0092223109 
   4918000  -10470.096      43.06009      -10427.036      4918           550748.38      0.0092366197 
   4919000  -10468.995      45.801393     -10423.193      4919           550856.7       0.0092318698 
   4920000  -10470.578      42.444696     -10428.134      4920           550964.84      0.0092467368 
   4921000  -10469.695      45.425828     -10424.27       4921           551073.17      0.0092311561 
   4922000  -10469.219      44.434367     -10424.785      4922           551181.96      0.0091920695 
   4923000  -10468.017      44.903378     -10423.113      4923           551290.03      0.009253344  
   4924000  -10469.591      43.518111     -10426.073      4924           551398.76      0.009196906  
   4925000  -10469.81       45.242745     -10424.567      4925           551507.34      0.0092099334 
   4926000  -10470.05       44.584623     -10425.465      4926           551615.8       0.009220234  
   4927000  -10468.841      43.410642     -10425.43       4927           551724.62      0.0091892965 
   4928000  -10471.089      44.761741     -10426.327      4928           551833.54      0.0091807173 
   4929000  -10469.848      45.560603     -10424.288      4929           551942.43      0.0091840702 
   4930000  -10468.063      44.657752     -10423.405      4930           552050.7       0.0092359255 
   4931000  -10468.518      45.483446     -10423.035      4931           552158.87      0.0092450428 
   4932000  -10469.089      43.184213     -10425.905      4932           552266.97      0.0092507635 
   4933000  -10468.458      46.207223     -10422.251      4933           552375.41      0.0092217089 
   4934000  -10469.81       44.620308     -10425.189      4934           552483.67      0.0092366075 
   4935000  -10468.002      45.582559     -10422.419      4935           552592.09      0.0092237189 
   4936000  -10470.269      44.753629     -10425.516      4936           552700.62      0.0092135197 
   4937000  -10470.565      44.088222     -10426.477      4937           552809.18      0.0092118957 
   4938000  -10468.376      45.195927     -10423.18       4938           552918.04      0.0091863755 
   4939000  -10469.453      43.364058     -10426.089      4939           553027.83      0.0091079801 
   4940000  -10469.424      46.159946     -10423.264      4940           553136.43      0.009207859  
   4941000  -10469.567      44.074066     -10425.492      4941           553244.8       0.009227732  
   4942000  -10470.07       44.510645     -10425.559      4942           553353.55      0.0091952467 
   4943000  -10469.951      45.35896      -10424.592      4943           553462.01      0.0092202203 
   4944000  -10467.552      44.313444     -10423.239      4944           553571.21      0.0091573462 
   4945000  -10469.116      44.581577     -10424.535      4945           553679.89      0.0092019845 
   4946000  -10468.1        44.744776     -10423.355      4946           553789.43      0.0091290971 
   4947000  -10467.631      45.414721     -10422.216      4947           553898.03      0.0092080606 
   4948000  -10469.818      43.927072     -10425.891      4948           554007.07      0.009170295  
   4949000  -10467.467      45.182769     -10422.284      4949           554115.77      0.0091998671 
   4950000  -10468.34       43.486151     -10424.854      4950           554224.96      0.0091587242 
   4951000  -10469.004      44.05917      -10424.944      4951           554334.12      0.0091609294 
   4952000  -10468.99       45.231372     -10423.759      4952           554443.04      0.0091810119 
   4953000  -10468.112      43.196881     -10424.915      4953           554552.54      0.0091324343 
   4954000  -10468.248      44.55438      -10423.694      4954           554662.04      0.0091323988 
   4955000  -10470.901      43.150534     -10427.751      4955           554772.67      0.0090390738 
   4956000  -10468.518      44.915035     -10423.603      4956           554883.35      0.0090351553 
   4957000  -10470.474      45.054055     -10425.42       4957           554994.4       0.0090048242 
   4958000  -10468.07       43.894644     -10424.175      4958           555105.64      0.0089893925 
   4959000  -10469.37       41.902824     -10427.467      4959           555217.09      0.0089725106 
   4960000  -10468.954      46.222532     -10422.731      4960           555329.94      0.0088610653 
   4961000  -10469.382      44.144035     -10425.238      4961           555442.12      0.008914493  
   4962000  -10470.305      44.230287     -10426.075      4962           555555.3       0.0088357215 
   4963000  -10469.207      45.172635     -10424.034      4963           555666.65      0.00898036   
   4964000  -10468.95       42.97045      -10425.979      4964           555778.46      0.008944229  
   4965000  -10470.254      44.375759     -10425.878      4965           555889.85      0.0089773382 
   4966000  -10469.098      45.372358     -10423.725      4966           556000.72      0.0090190142 
   4967000  -10469.727      44.780356     -10424.947      4967           556113.36      0.0088783938 
   4968000  -10468.549      44.983736     -10423.566      4968           556224.53      0.0089950823 
   4969000  -10468.426      43.703741     -10424.722      4969           556335.3       0.0090279257 
   4970000  -10468.118      45.87304      -10422.245      4970           556446.13      0.0090228865 
   4971000  -10470.058      44.410117     -10425.648      4971           556558.17      0.0089247523 
   4972000  -10468.379      44.913563     -10423.466      4972           556668.19      0.0090899411 
   4973000  -10469.882      43.187047     -10426.695      4973           556778.71      0.0090475906 
   4974000  -10469.694      45.375139     -10424.318      4974           556888.8       0.0090833177 
   4975000  -10469.051      42.859268     -10426.192      4975           557000.29      0.0089695976 
   4976000  -10469.051      44.427868     -10424.623      4976           557111.58      0.0089859459 
   4977000  -10472.646      44.809267     -10427.837      4977           557223.78      0.008912699  
   4978000  -10470.234      46.234456     -10423.999      4978           557335.2       0.0089751286 
   4979000  -10470.661      43.159861     -10427.501      4979           557445.11      0.009098274  
   4980000  -10468.925      43.460421     -10425.465      4980           557556.75      0.0089569113 
   4981000  -10469.895      44.400593     -10425.494      4981           557667.95      0.0089926572 
   4982000  -10469.201      45.79475      -10423.406      4982           557778.39      0.0090553155 
   4983000  -10469.99       43.20981      -10426.78       4983           557888.66      0.0090683582 
   4984000  -10470.41       46.413917     -10423.996      4984           558000.02      0.0089801658 
   4985000  -10467.91       45.256436     -10422.654      4985           558111.51      0.0089692691 
   4986000  -10469.32       44.176723     -10425.144      4986           558223.78      0.0089071891 
   4987000  -10469.065      44.426841     -10424.638      4987           558336.31      0.0088861036 
   4988000  -10467.935      44.156405     -10423.778      4988           558448.58      0.0089070053 
   4989000  -10469.658      43.982465     -10425.675      4989           558559.87      0.0089854419 
   4990000  -10469.269      42.595832     -10426.673      4990           558673.11      0.0088311566 
   4991000  -10468.991      43.855949     -10425.135      4991           558786.81      0.0087953197 
   4992000  -10468.98       44.131245     -10424.849      4992           558899.54      0.0088706535 
   4993000  -10471.105      45.24794      -10425.857      4993           559012.81      0.0088284213 
   4994000  -10470.01       46.567969     -10423.442      4994           559126.52      0.0087938196 
   4995000  -10469.418      43.87536      -10425.543      4995           559238.86      0.0089021201 
   4996000  -10470.644      45.088271     -10425.556      4996           559351.91      0.0088457901 
   4997000  -10467.909      45.474477     -10422.435      4997           559465.02      0.0088406199 
   4998000  -10469.321      44.060568     -10425.26       4998           559578.5       0.0088123991 
   4999000  -10468.287      45.227401     -10423.059      4999           559691.91      0.0088169369 
   5000000  -10470.2        43.900716     -10426.3        5000           559805.35      0.0088154622 
Loop time of 559805 on 16 procs for 5000000 steps with 1152 atoms

Performance: 0.772 ns/day, 31.100 hours/ns, 8.932 timesteps/s, 10.289 katom-step/s
99.2% CPU use with 16 MPI tasks x 1 OpenMP threads

MPI task timing breakdown:
Section |  min time  |  avg time  |  max time  |%varavg| %total
---------------------------------------------------------------
Pair    | 1.5876e+05 | 1.6363e+05 | 1.675e+05  | 600.2 | 29.23
Neigh   | 1817.1     | 1925.4     | 2020       | 139.2 |  0.34
Comm    | 9897.5     | 14221      | 19724      |2165.9 |  2.54
Output  | 0.8827     | 0.95182    | 1.9523     |  26.5 |  0.00
Modify  | 3.7924e+05 | 3.7998e+05 | 3.8064e+05 |  82.0 | 67.88
Other   |            | 47.24      |            |       |  0.01

Nlocal:             72 ave          85 max          57 min
Histogram: 2 0 0 0 0 11 0 1 0 2
Nghost:        931.312 ave         964 max         883 min
Histogram: 2 2 0 0 1 2 2 1 1 5
Neighs:              0 ave           0 max           0 min
Histogram: 16 0 0 0 0 0 0 0 0 0
FullNghs:      7284.25 ave        8884 max        4854 min
Histogram: 2 0 0 0 1 1 8 2 1 1

Total # of neighbors = 116548
Ave neighs/atom = 101.17014
Neighbor list builds = 10000000
Dangerous builds = 0

unfix temp

min_style cg
fix 0 all box/relax aniso 0 vmax 0.001
minimize 0 0 100000 100000
Per MPI rank memory allocation (min/avg/max) = 5.539 | 5.542 | 5.543 Mbytes
   Step         PotEng         KinEng         TotEng          Time           CPU           T/CPU     
   5000000  -10470.2        43.900716     -10426.3        5000           0              0            
   5001000  -10514.957      43.900716     -10471.056      5001           56.073685      0.017833677  
   5002000  -10514.994      43.900716     -10471.094      5002           124.54132      0.014605441  
   5003000  -10515.001      43.900716     -10471.1        5003           192.98967      0.014609557  
   5004000  -10515.002      43.900716     -10471.101      5004           261.55001      0.014585691  
   5005000  -10515.002      43.900716     -10471.101      5005           330.40535      0.014523203  
   5006000  -10515.002      43.900716     -10471.101      5006           401.0825       0.014148843  
   5007000  -10515.002      43.900716     -10471.101      5007           471.50919      0.014199164  
   5008000  -10515.002      43.900716     -10471.101      5008           542.07688      0.01417079   
   5009000  -10515.002      43.900716     -10471.101      5009           612.62708      0.014174304  
   5010000  -10515.002      43.900716     -10471.101      5010           683.11579      0.014186669  
   5011000  -10515.002      43.900716     -10471.101      5011           753.53962      0.014199739  
   5012000  -10515.002      43.900716     -10471.101      5012           824.14023      0.014164183  
   5013000  -10515.002      43.900716     -10471.101      5013           894.63752      0.014184944  
   5014000  -10515.002      43.900716     -10471.101      5014           965.64668      0.014082689  
   5015000  -10515.002      43.900716     -10471.101      5015           1036.4008      0.014133448  
   5016000  -10515.002      43.900716     -10471.101      5016           1107.0276      0.014158938  
   5017000  -10515.002      43.900716     -10471.101      5017           1177.4944      0.014191085  
   5018000  -10515.002      43.900716     -10471.101      5018           1247.917       0.014199974  
   5019000  -10515.002      43.900716     -10471.101      5019           1318.4198      0.014183843  
   5020000  -10515.002      43.900716     -10471.101      5020           1388.834       0.014201688  
   5021000  -10515.002      43.900716     -10471.101      5021           1459.3096      0.014189309  
   5022000  -10515.002      43.900716     -10471.101      5022           1529.9216      0.014161886  
   5023000  -10515.002      43.900716     -10471.101      5023           1600.8159      0.014105511  
   5024000  -10515.002      43.900716     -10471.101      5024           1671.5075      0.014145957  
   5025000  -10515.002      43.900716     -10471.101      5025           1742.1119      0.014163413  
   5026000  -10515.002      43.900716     -10471.101      5026           1812.6698      0.014172764  
   5027000  -10515.002      43.900716     -10471.101      5027           1883.2795      0.014162366  
   5028000  -10515.002      43.900716     -10471.101      5028           1954.084       0.014123396  
   5029000  -10515.002      43.900716     -10471.101      5029           2024.5389      0.014193463  
   5030000  -10515.002      43.900716     -10471.101      5030           2095.2488      0.014142301  
   5031000  -10515.002      43.900716     -10471.101      5031           2166.309       0.014072577  
   5032000  -10515.002      43.900716     -10471.101      5032           2237.3991      0.014066654  
   5033000  -10515.002      43.900716     -10471.101      5033           2308.2838      0.014107405  
   5034000  -10515.002      43.900716     -10471.101      5034           2379.3856      0.014064359  
   5035000  -10515.002      43.900716     -10471.101      5035           2450.3064      0.014100236  
   5036000  -10515.002      43.900716     -10471.101      5036           2521.4086      0.014064244  
   5037000  -10515.002      43.900716     -10471.101      5037           2592.5208      0.014062298  
   5038000  -10515.002      43.900716     -10471.101      5038           2663.7147      0.014046144  
   5039000  -10515.002      43.900716     -10471.101      5039           2734.6116      0.014104981  
   5040000  -10515.002      43.900716     -10471.101      5040           2811.9156      0.012935954  
   5041000  -10515.002      43.900716     -10471.101      5041           2889.8219      0.012835926  
   5042000  -10515.002      43.900716     -10471.101      5042           2967.5688      0.012862247  
   5043000  -10515.002      43.900716     -10471.101      5043           3045.3656      0.012853997  
   5044000  -10515.002      43.900716     -10471.101      5044           3123.2848      0.012833809  
   5045000  -10515.002      43.900716     -10471.101      5045           3200.8607      0.01289061   
   5046000  -10515.002      43.900716     -10471.101      5046           3278.5519      0.01287146   
   5047000  -10515.002      43.900716     -10471.101      5047           3356.662       0.01280245   
   5048000  -10515.002      43.900716     -10471.101      5048           3434.4376      0.012857494  
   5049000  -10515.002      43.900716     -10471.101      5049           3512.3018      0.012842878  
   5050000  -10515.002      43.900716     -10471.101      5050           3589.826       0.012899195  
   5050197  -10515.002      43.900716     -10471.101      5050.197       3605.1183      0.012882338  
Loop time of 3605.12 on 16 procs for 50197 steps with 1152 atoms

99.2% CPU use with 16 MPI tasks x 1 OpenMP threads

Minimization stats:
  Stopping criterion = max force evaluations
  Energy initial, next-to-last, final = 
     -10470.2002837242  -10515.0015988967  -10515.0015988967
  Force two-norm initial, final = 79.68967 6.1865313e-12
  Force max component initial, final = 49.099482 4.2096385e-12
  Final line search alpha, max atom move = 1 4.2096385e-12
  Iterations, force evaluations = 50197 100001

MPI task timing breakdown:
Section |  min time  |  avg time  |  max time  |%varavg| %total
---------------------------------------------------------------
Pair    | 2621.8     | 3080       | 3494.9     | 420.1 | 85.43
Neigh   | 0.00027494 | 0.00034644 | 0.00042496 |   0.0 |  0.00
Comm    | 88.046     | 323.97     | 844.63     |1253.8 |  8.99
Output  | 0.0072252  | 0.0080051  | 0.019005   |   3.2 |  0.00
Modify  | 0          | 0          | 0          |   0.0 |  0.00
Other   |            | 201.2      |            |       |  5.58

Nlocal:             72 ave          85 max          57 min
Histogram: 2 0 0 0 0 11 0 1 0 2
Nghost:        935.875 ave         967 max         890 min
Histogram: 3 1 0 1 1 0 2 2 2 4
Neighs:              0 ave           0 max           0 min
Histogram: 16 0 0 0 0 0 0 0 0 0
FullNghs:      7321.88 ave        8930 max        4876 min
Histogram: 2 0 0 0 1 1 9 1 1 1

Total # of neighbors = 117150
Ave neighs/atom = 101.69271
Neighbor list builds = 1
Dangerous builds = 0

write_data data.CSRO
System init for write_data ...

print "all done"
all done
Total wall time: 156:30:10
