LAMMPS data file via write_data, version 22 Dec 2022, timestep = 5050198

1152 atoms
5 atom types

-0.03893172222934894 15.101383038345904 xlo xhi
0.03619180639137689 15.939950394152866 ylo yhi
0.16482656562185938 69.40565601050359 zlo zhi

Masses

1 180.948
2 92.9064
3 50.9415
4 95.94
5 183.84

Atoms # atomic

1065 3 0.6856845195867114 1.4755816974120117 2.582883628384083 -7 -7 3
1069 3 1.9498781113349184 0.5865747856580021 0.5341865753782213 -7 -7 3
1070 3 1.9493712076836847 3.2432668263916447 0.5419942403807209 -7 -7 3
1071 3 3.187556805341277 2.3736016801117357 2.5912625316700244 -7 -7 3
1051 2 5.738458488423763 0.5778104318130536 2.5778252229112395 -7 -7 3
1050 3 4.443527978713943 1.493410154681752 0.4907038391149125 -7 -7 3
1054 3 7.023935725119555 2.373891530725339 0.5090634117258352 -7 -7 3
1052 3 5.742068708223295 3.29047573496733 2.589891864284402 -7 -7 3
459 3 4.478954396303518 4.128556453059594 0.5402582164299802 -7 -8 3
1035 3 9.540116629682592 0.5760392843477479 0.519492009718872 -7 -7 3
1031 3 8.317996195403257 1.4751340747975659 2.567903796274747 -7 -7 3
1037 3 10.790355742587646 2.3439006257399546 2.5639863492867794 -7 -7 3
1036 3 9.534555886613118 3.237058947144339 0.5238202419934922 -7 -7 3
443 3 8.274534398851891 4.116988248111022 2.5797187643886494 -7 -8 3
1081 3 14.570534351768396 2.353576814873801 0.5337963685780804 -8 -7 3
1078 3 13.31459828360741 0.581800863560357 2.568957409927278 -8 -7 3
1077 3 12.054417126421823 1.463202417861889 0.5246254716753559 -8 -7 3
1079 3 13.30823908525915 3.233382402645957 2.5688319345638977 -8 -7 3
477 3 0.6942925446157304 4.123707416936678 2.578161401653641 -7 -8 3
483 3 1.9595456185273623 5.889588444091517 0.5361470114649142 -7 -8 3
478 3 0.7100105377470165 6.771134433995882 2.568167575081626 -7 -8 3
454 3 3.220569524585571 5.008196541623034 2.588011717296452 -7 -8 3
485 3 3.237397060720294 7.649325112769042 2.57684509999665 -7 -8 3
467 3 7.013201532131724 7.645962340651234 0.5383370679975866 -7 -8 3
461 3 5.755050579919587 5.881420819007982 2.5917588897597237 -7 -8 3
460 3 4.486645000102234 6.767471232906617 0.5381979522977157 -7 -8 3
442 3 7.011759676679685 5.0069191285930295 0.5358468344276202 -7 -8 3
449 3 9.533961742048364 5.884150853073655 0.5339937541774047 -7 -8 3
444 3 8.284070163307774 6.757576412152643 2.5847051336991447 -7 -8 3
438 3 10.795474095902618 4.997809249943031 2.5683775460180023 -7 -8 3
451 3 10.807071575279661 7.64431558362505 2.571589216196004 -7 -8 3
504 3 14.581963972069026 7.651756531346645 0.5271874563454998 -8 -8 3
476 3 14.574745912728934 5.003063097980975 0.5307147305133089 -8 -8 3
498 3 13.322239580559355 5.884120088321408 2.564586926581299 -8 -8 3
1082 3 12.052251988158815 4.116999183530216 0.5270242386313647 -8 -8 3
497 3 12.057226496298577 6.766240592966471 0.5291836312632487 -8 -8 3
1066 3 1.938982273165654 0.5885459209319838 4.638189989502852 -7 -7 3
1067 3 1.9475453675364434 3.2462931759273856 4.633324811901273 -7 -7 3
1061 3 0.6869465674507569 1.4627197802128646 6.6690488992346975 -7 -7 3
1068 3 3.2118822717875903 2.34944993217788 6.691757378730899 -7 -7 3
474 3 0.7096818620183624 4.128294741545422 6.654014943931391 -7 -8 3
1140 3 1.9986222868560473 3.217139280325075 8.707939790176399 -7 -7 3
535 3 4.502906621901116 4.09807118265361 8.738654040367273 -7 -8 3
1046 3 4.432393739306979 1.490626967585479 4.6841280161775884 -7 -7 3
1053 3 7.0154288136508836 2.364797596648528 4.650930532117668 -7 -7 3
1047 3 5.722589254092004 0.5600749839142096 6.678924374378681 -7 -7 3
1048 3 5.738717229334837 3.2208744012672375 6.6924410969217565 -7 -7 3
455 3 4.4808999878176055 4.124812918357347 4.647215912811682 -7 -8 3
1120 3 4.485881120156312 1.4234622976583524 8.74174561120401 -7 -7 3
1033 3 9.533749328881669 3.224081561486377 4.613850549007103 -7 -7 3
1032 3 9.531126972146858 0.5624918518397368 4.601255068473747 -7 -7 3
1106 3 9.486478704814528 3.153565774936278 8.651857487564923 -7 -7 3
1027 3 8.251911549113071 1.4330877314084725 6.650554303796131 -7 -7 3
1034 3 10.78221140575615 2.316191729711457 6.632223320084621 -7 -7 3
1105 3 9.487075190554263 0.49754424289483845 8.662317997282344 -7 -7 3
1151 3 14.604852341296978 2.3119488036492073 8.677177643532731 -8 -7 3
1080 3 14.56493399446917 2.3540098860111898 4.61756415792467 -8 -7 3
1073 3 12.045816692612275 1.4544068736624225 4.602918472826173 -8 -7 3
1074 3 13.302117266432267 0.5623002084173827 6.646575648325144 -8 -7 3
1075 3 13.322370675181078 3.2210489740618624 6.6306043885104 -8 -7 3
1147 3 12.041873232576473 1.3955959361346104 8.659030334274922 -8 -7 3
570 3 12.10689245574664 4.066197701727309 8.599560816802398 -8 -8 3
557 3 2.013824179644707 5.908176598399097 8.692629791437936 -7 -8 3
481 3 3.262521610574427 7.659405158142752 6.663606690440666 -7 -8 3
479 3 1.9751421073034692 5.893096423117093 4.6196966510195026 -7 -8 3
475 3 0.7396298677596878 6.787136075214344 6.637930854941438 -7 -8 3
453 3 3.2371542888686804 5.010604744336204 6.679624104761894 -7 -8 3
536 3 4.515920762605862 6.784766162616466 8.732904885194696 -7 -8 3
463 3 7.0360083384121435 7.634664758027185 4.636280176564224 -7 -8 3
456 3 4.505390340474254 6.762086905945056 4.63673174204914 -7 -8 3
439 3 7.020859478081284 4.993530799940274 4.64312943249787 -7 -8 3
457 3 5.761088044243634 5.875372093792884 6.693254314170967 -7 -8 3
525 3 9.482240070458248 5.919578150958552 8.621878838091458 -7 -8 3
447 3 10.834563601198463 7.652481624156324 6.644939298819007 -7 -8 3
445 3 9.553417233875182 5.871680761094776 4.617039481292599 -7 -8 3
440 3 8.270052370592458 4.088249566313657 6.664998245648395 -7 -8 3
437 3 10.809761119323891 4.986682173627835 6.631102427686793 -7 -8 3
441 3 8.290614809506657 6.758603068680129 6.662917084420074 -7 -8 3
493 3 12.078286767189041 6.764998078792196 4.601164728465238 -8 -8 3
492 3 12.054649852669357 4.113772811005228 4.600934384871411 -8 -8 3
473 3 14.585960433565823 5.007553090091863 4.605425226681531 -8 -8 3
571 3 12.104751067870627 6.825019355906361 8.635230462861728 -8 -8 3
577 3 14.644229923607377 7.715460138253411 8.654461781481706 -8 -8 3
494 3 13.349245333756624 5.8950966936410145 6.625632781645557 -8 -8 3
500 3 14.606345389882488 7.656631683630852 4.597741435101118 -8 -8 3
550 3 14.626548439305958 5.012582405386004 8.653611171567682 -8 -8 3
1139 3 1.9782083075957193 0.5465539446656751 8.728569633267925 -7 -7 3
1124 3 6.979785871208513 2.282663238128604 8.712944069398953 -7 -7 3
542 3 7.011699172018666 7.671308734305743 8.72373207079189 -7 -8 3
518 3 6.988847559172632 4.983740198355048 8.72091962420598 -7 -8 3
1135 3 0.8116455109181835 1.3621503846790808 10.71073278150826 -7 -7 3
1136 3 2.133359624162627 0.4320157279118546 12.892935906175971 -7 -7 3
1137 3 2.1723476764661536 3.113236335975896 12.858758309674073 -7 -7 3
1141 3 3.2872434788562233 2.2826253776848215 10.801990138338223 -7 -7 3
574 2 14.680247775665915 7.8859300101846665 12.79874306123981 -8 -8 3
1121 3 5.738274718663775 0.4771416371629481 10.793132482113077 -7 -7 3
1116 3 4.531117923328574 1.3224081964778887 12.932704033400945 -7 -7 3
1122 3 5.732840799492522 3.1568975647824984 10.798330294025321 -7 -7 3
1123 3 6.868483589892423 2.193929597781936 12.853254958334826 -7 -7 3
531 3 4.523259644541199 4.031169984759298 12.916973381497245 -7 -8 3
40 2 14.694172913575136 5.044417514434545 17.458374580315247 -8 -8 2
1102 3 9.421627350751855 0.31757027628446743 12.795350208792414 -7 -7 3
1101 3 8.195379889729308 1.3132287124182216 10.726026378112506 -7 -7 3
1107 3 10.746911189290019 2.1895507756735455 10.618882510880626 -7 -7 3
1103 2 9.400836482391004 3.0932377431061866 12.783836150157267 -7 -7 3
1150 2 14.743427891180842 2.1974653972064546 12.787935218575775 -8 -7 3
1148 3 13.364404048234821 0.4369873743000544 10.676091807648795 -8 -7 3
1143 2 12.052048160863475 1.2388311906857365 12.775420916733793 -8 -7 3
1149 3 13.372668928997856 3.158525352958904 10.599102795364526 -8 -7 3
551 3 0.8199884884686494 4.077187323012819 10.657106488502915 -7 -8 3
553 2 2.124108575159375 5.933375794454871 12.848420829133797 -7 -8 3
552 3 0.7930870621658391 6.862412982734968 10.63648274494898 -7 -8 3
530 3 3.3121377975504194 4.969402601461449 10.737860417506576 -7 -8 3
559 3 3.291571493660364 7.746776556019778 10.761691936463002 -7 -8 3
537 3 5.735863796302907 5.903751862520573 10.792314822121044 -7 -8 3
532 3 4.553022958229199 6.882357972400822 12.844592500572976 -7 -8 3
515 3 6.873345151593032 4.982629011482898 12.814076522003168 -7 -8 3
568 2 13.361478632999061 6.009276864032273 15.112227400905025 -8 -8 3
539 3 6.9193863797064274 7.797241094473314 12.904026196341652 -7 -8 3
60 2 12.05415228124272 6.975461632157768 17.442876771231923 -8 -8 2
519 3 8.130858942152889 4.06983861674491 10.696919193192967 -7 -8 3
521 2 9.36281458841146 6.012233710315903 12.845181051096088 -7 -8 3
520 3 8.173134999852605 6.8586460505768105 10.71557086205846 -7 -8 3
514 2 10.757413111818776 5.015294481663565 10.618525631064182 -7 -8 3
527 3 10.753248989959886 7.821605847992614 10.675481693145363 -7 -8 3
547 2 14.683887148449033 5.022663991158983 12.763427927840004 -8 -8 3
566 2 12.077690502686234 4.075686417805824 12.786337463938995 -8 -8 3
572 3 13.399941591624867 5.9618026744753285 10.588403637258729 -8 -8 3
567 2 12.03324377274664 6.967646942769039 12.781850198509172 -8 -8 3
1131 2 0.9583004845236786 1.2498806330165328 15.130946676022566 -7 -7 3
1138 3 3.3889396315678906 2.199628420568168 15.130062473124987 -7 -7 3
1117 3 5.662459758037286 0.3455041555529707 15.1293980220241 -7 -7 3
1118 3 5.633546257224918 3.05623744312277 15.051169192811253 -7 -7 3
628 2 6.8354891074701944 2.096026772546868 17.382766328972327 -7 -7 2
1097 2 8.12426259501287 1.1896511499337685 15.059396364776466 -7 -7 3
1104 2 10.751730511513367 2.1712390934986825 15.09528044795576 -7 -7 3
1144 2 13.437277165233734 0.3006598659844848 15.093480568355064 -8 -7 3
1145 2 13.412543410493404 3.1337708198007475 15.108637076549577 -8 -7 3
555 2 3.2992816066839366 7.864874005482169 15.164631643481787 -7 -8 3
549 2 0.8062529570758761 6.957272103520134 15.14093013854407 -7 -8 3
548 2 0.9115388920914798 4.058685313199849 15.130300066655844 -7 -8 3
529 3 3.315665581802219 4.952991010045063 15.106482823446575 -7 -8 3
533 2 5.6816895684086015 5.9692612412702815 15.073358976716124 -7 -8 3
24 3 4.425112993909252 7.004723418052254 17.47060873866429 -7 -8 2
31 2 6.878621407170907 7.9003484521126275 17.367482819945913 -7 -8 2
6 2 6.884632860132957 5.024121354828019 17.393818331998148 -7 -8 2
23 2 4.383437376120035 4.030161171152343 17.3838320775071 -7 -8 2
517 3 8.121434804402606 6.975826398474994 15.057653923522869 -7 -8 3
13 2 9.44010021218878 6.037543995705676 17.386831158939827 -7 -8 2
523 2 10.649177952274076 7.9171371448255865 15.106321963011034 -7 -8 3
1152 2 8.10153966953411 4.072203664530254 15.062785262418386 -7 -8 3
513 2 10.727579946498192 5.051485672569699 15.102415217392075 -7 -8 3
624 3 4.422504882729393 1.1704265155487947 17.42291091201227 -7 -7 2
609 2 9.462398865985469 3.097723532319087 17.418014032953813 -7 -7 2
608 2 9.439287782003687 0.23247366373723968 17.426855707683544 -7 -7 2
652 2 12.116902588984518 1.2075975100218208 17.433925156212005 -8 -7 2
656 2 14.785727161305177 2.1854896215541095 17.474286275521234 -8 -7 2
47 2 2.096638610225567 5.995701722691357 17.467167355958875 -7 -8 2
59 2 12.084286328757713 4.091429750100685 17.437361846862935 -8 -8 2
640 3 0.9249944440853327 1.2101225129634323 19.781241512574766 -7 -7 2
646 3 3.1615405442531626 2.0995857298626475 19.70104338987146 -7 -7 2
644 3 2.174143749921341 0.37185999096841 17.489696433667476 -7 -7 2
645 3 2.088834144869922 3.0370700893374147 17.478203199871746 -7 -7 2
625 3 5.631023144423856 0.23763894901983873 19.710012080302842 -7 -7 2
626 2 5.574930564651378 3.028935891151122 19.712158928209544 -7 -7 2
11 2 10.875110012479267 7.974451150562893 24.413578951530763 -7 -8 2
604 2 8.136730752380245 1.1383592011335824 19.744868757771986 -7 -7 2
610 2 10.802325851196258 2.1404776865542416 19.760568369357873 -7 -7 2
15 2 10.801467198259061 7.956535168789163 19.736938887055004 -7 -8 2
37 2 14.663918512527065 5.063193669587797 22.094278077867724 -8 -8 2
653 2 13.500711638956705 0.28828939436408385 19.798540133709057 -8 -7 2
654 2 13.428350317512612 3.1194471398967214 19.77130507129551 -8 -7 2
56 2 12.10421260721296 7.027589363710587 22.085751135395263 -8 -8 2
55 2 12.109415281852781 4.077167530708374 22.08897847832826 -8 -8 2
41 2 0.873622909039112 4.045972231986193 19.782289650388048 -7 -8 2
18 3 3.211278812650277 5.025126618912514 19.730911740001044 -7 -8 2
42 2 0.8216737994685223 7.037412762284691 19.767575054035852 -7 -8 2
49 3 3.245219388968747 7.945775274650584 19.744909683553715 -7 -8 2
57 2 13.392889727242888 6.092713806109307 24.431654296887498 -8 -8 2
25 2 5.561878247762157 6.02095327065476 19.714906327595646 -7 -8 2
7 2 8.1762600926965 4.049262819159588 19.730242629681772 -7 -8 2
8 2 8.170073763447585 6.9539026741763434 19.715372567260502 -7 -8 2
2 2 10.790144781500299 5.046365521707467 19.75321466473451 -7 -8 2
61 2 13.387213366467307 6.0557672299026795 19.77740581640476 -8 -8 2
5 2 8.246545859889887 6.973804480530636 24.36713423405175 -7 -8 2
641 3 1.975910724221602 0.3083474457600063 22.06689392636411 -7 -7 2
642 3 1.9953392860157728 3.019336205105845 22.06011571133062 -7 -7 2
636 3 0.7993530644492713 1.1327681109029786 24.37223886986544 -7 -7 2
643 3 3.1302234785970073 2.044981916887103 24.325410031167248 -7 -7 2
627 2 6.910548862480481 2.0702566007847203 22.06334242644798 -7 -7 2
620 2 4.373871014630378 1.1462829359710316 22.052418553733105 -7 -7 2
621 3 5.68110649099697 0.20275331569342828 24.38743378324782 -7 -7 2
622 2 5.638798291094373 2.9923173833577814 24.36210943649419 -7 -7 2
606 2 9.50815854326186 3.076278000493567 22.076603617588702 -7 -7 2
605 2 9.476689548088915 0.20843825015999246 22.11270990698925 -7 -7 2
600 2 8.215272430523221 1.0917189893793449 24.431614186478953 -7 -7 2
607 2 10.818471806104322 2.0680110321629304 24.40701789955067 -7 -7 2
655 2 14.758357421114496 2.1185185476466613 22.097049656364323 -8 -7 2
648 2 12.15463693928729 1.1955023920606105 22.12803863540949 -8 -7 2
649 3 13.449773827273754 0.2333873763148161 24.407531966800622 -8 -7 2
650 2 13.383764202837222 3.0558122522114393 24.399273106232503 -8 -7 2
43 2 2.01555537390483 6.051707370775364 22.035674910713368 -7 -8 2
38 2 0.7403717616706537 4.031804392176822 24.349053070866997 -7 -8 2
17 2 3.179752584383452 5.0086383772354415 24.331838947320588 -7 -8 2
39 3 0.6647437700362704 7.049487384761816 24.40154800447451 -7 -8 2
45 2 3.1071448820276535 7.936002025084756 24.285717240772257 -7 -8 2
20 3 4.380324856166174 7.01132684636601 21.96808450160384 -7 -8 2
19 2 4.345304917218526 4.034393827568744 21.995395923164303 -7 -8 2
3 2 6.90176835033303 5.009703638590468 22.040295439911947 -7 -8 2
21 2 5.676276453463564 5.9869627955131115 24.32297951012806 -7 -8 2
27 2 6.851854791033953 7.9142901374575425 22.004999498278554 -7 -8 2
9 2 9.505093059226303 6.009720351838309 22.06524166272151 -7 -8 2
1 2 10.827624727099707 5.046996069187836 24.400315400611827 -7 -8 2
4 2 8.233276488544929 4.018921921201211 24.38638318130017 -7 -8 2
66 2 14.68800640681257 7.9630188737321435 17.482662080450144 -8 -8 2
711 3 0.7734156258150625 1.0920408656312393 29.002677973246726 -7 -7 2
715 3 1.9485083506522154 0.23365666032926685 26.67875674434317 -7 -7 2
717 2 3.215282260661109 2.0017881120788954 29.038107537015048 -7 -7 2
716 2 1.975256584942751 3.0080283369744976 26.64522762903963 -7 -7 2
696 3 5.782422289407294 0.24478122157516088 29.099026774505194 -7 -7 2
695 2 4.451808162512471 1.0960242138701122 26.669400002134598 -7 -7 2
697 2 5.760342787375829 2.9526084514607107 29.068551537793955 -7 -7 2
699 2 7.008640511075129 2.0171214477746555 26.749640248267553 -7 -7 2
97 2 4.460259189326234 3.9977741414360612 26.677361132965864 -7 -8 2
675 3 8.240568823278446 1.0779448582033766 29.084271370551036 -7 -7 2
679 3 9.519761160612385 0.18962557602955243 26.74419572945183 -7 -7 2
680 2 9.535315539324355 3.018833317034441 26.715897406552884 -7 -7 2
681 2 10.741540751980912 2.031262797937199 29.03050653483335 -7 -7 2
81 2 8.259352170177234 3.973888895302952 29.040299998078662 -7 -8 2
727 2 14.64870829373286 2.044984137884174 26.67837642293147 -8 -7 2
724 2 13.374243867159517 0.22600232355920116 29.012366399189133 -8 -7 2
723 2 12.068858149124635 1.0961381762355469 26.671398361335026 -8 -7 2
725 2 13.34129601125955 3.046510738014433 29.01295074446032 -8 -7 2
114 2 0.7170335117353798 4.004984842072325 29.003163510209223 -7 -8 2
120 2 1.9107721941729792 6.0224947600598595 26.64499949487627 -7 -8 2
92 2 3.209837972915024 4.987322129705668 29.012340071241123 -7 -8 2
115 2 0.670332719072935 7.008628515917727 28.991938083095675 -7 -8 2
98 2 4.434032705013169 6.955464786366369 26.676324062955175 -7 -8 2
99 2 5.726319549330839 5.962827878644124 29.027148957740483 -7 -8 2
80 2 6.993165078603273 4.975189519740304 26.69399871198523 -7 -8 2
104 2 6.98666102140627 7.932066959977504 26.672887779300684 -7 -8 2
87 2 9.584597054777165 6.012327919292451 26.695465555594662 -7 -8 2
82 2 8.259746682701033 6.957780573742104 29.020122898474167 -7 -8 2
76 2 10.79592630684499 5.007464542598506 29.021236922451475 -7 -8 2
113 2 14.586364757511795 5.059166660563907 26.682691530054647 -8 -8 2
133 3 12.143243846943264 7.052328710675845 26.682364581976245 -8 -8 2
134 2 13.316331163751714 6.026154784189238 28.977150834560994 -8 -8 2
132 2 12.082088319670163 4.055548564705584 26.70078932625795 -8 -8 2
707 2 0.7679400771580359 1.103767024729427 33.68252930998482 -7 -7 2
712 3 2.0208348874081707 0.21215744719860305 31.30832802401295 -7 -7 2
713 2 1.997612653775879 2.9896114796681417 31.33361290948504 -7 -7 2
714 2 3.2844230333463464 2.0223783789874656 33.64429928432985 -7 -7 2
691 3 4.557578098541748 1.0801020739623404 31.347248778904312 -7 -7 2
692 3 5.817945208479995 0.24975856280699107 33.628920270275714 -7 -7 2
693 2 5.789193684305477 2.9686366435109837 33.63463618225755 -7 -7 2
698 3 6.995918039426511 1.9629341912722478 31.35342215437881 -7 -7 2
93 2 4.506220447747242 3.956558377374874 31.34426508587327 -7 -8 2
671 3 8.248109630833964 1.0867862807235906 33.653593011243835 -7 -7 2
676 3 9.45995823568229 0.24588303094649955 31.366259390799648 -7 -7 2
677 2 9.454724285087192 2.9727337441655917 31.359698774188605 -7 -7 2
678 2 10.729777021227438 2.037337060885822 33.6938411683616 -7 -7 2
78 2 8.26102570371438 3.9858821748074873 33.68213521146778 -7 -8 2
726 2 14.629026797896916 2.0450684065680007 31.31618525216177 -8 -7 2
720 2 13.322055588785544 0.1957263197805926 33.69057014881184 -8 -7 2
719 2 12.016438563043712 1.1093334461410567 31.35673326450116 -8 -7 2
721 2 13.32144161343576 3.0479366049386973 33.689185674611174 -8 -7 2
111 2 0.7145895351761832 4.015207588364167 33.685249420592015 -7 -8 2
116 2 1.9552241430508577 5.992116101479891 31.344336839656712 -7 -8 2
112 2 0.6764031630844098 6.970172172736974 33.67943683714819 -7 -8 2
91 2 3.2327449514606155 4.979177401087304 33.68332303554128 -7 -8 2
118 2 3.183634259279926 7.9586531472171735 33.654932527617376 -7 -8 2
94 2 4.449541614601391 6.976991903544583 31.356650421659126 -7 -8 2
95 2 5.733272843183252 5.970832682370872 33.68685539815076 -7 -8 2
77 2 6.9989499572099705 4.965770112992521 31.353789791084914 -7 -8 2
79 2 8.25832261111908 6.971487325064045 33.701855290629915 -7 -8 2
83 2 9.523174795314112 5.983409042390131 31.356491164737932 -7 -8 2
75 2 10.787082801515188 5.005313758934613 33.69503707425847 -7 -8 2
85 2 10.827543240621038 7.976293687170891 33.706789005026806 -7 -8 2
128 2 12.045692780982854 4.014929972979804 31.3511109608033 -8 -8 2
130 2 13.307310423478397 6.012384281705437 33.6886600771784 -8 -8 2
129 2 12.06484650927636 6.998789001575212 31.35348243384184 -8 -8 2
110 2 14.586830400191165 5.01318729514577 31.33698313965892 -8 -8 2
122 2 3.1523669785372586 7.968566506965857 29.05881809448752 -7 -8 2
89 2 10.818594846978877 7.953910127050535 28.99080213178167 -7 -8 2
139 3 14.499439496714208 7.96856677670816 26.620555809101667 -8 -8 2
101 2 6.9691190603163 7.964215388953357 31.362250555223437 -7 -8 2
780 3 0.7698439321099473 1.1703989610610832 38.40205025320342 -7 -7 2
784 3 1.9961496932600113 0.2170098245871939 36.03330009190209 -7 -7 2
785 2 1.9786723275781166 3.024181947761083 36.04557401416228 -7 -7 2
786 2 3.1984334483528944 2.059996178455834 38.398756697548 -7 -7 2
764 2 4.499623876684595 1.10155853908511 35.99511649628688 -7 -7 2
765 2 5.788095516596878 0.21049989454153287 38.38263594748963 -7 -7 2
766 2 5.757992442839127 3.053969974818332 38.399588562611825 -7 -7 2
768 2 7.050016243933798 2.0384810390635453 35.99460466395005 -7 -7 2
170 2 4.49296097723585 4.008793493784044 36.033072261035535 -7 -8 2
745 2 8.3381292907191 1.1113271979605996 38.40054318031164 -7 -7 2
749 3 9.534645309635195 0.19951254630076326 36.02262034102795 -7 -7 2
750 2 9.534666213778586 3.0304708032973595 36.041465515135386 -7 -7 2
751 2 10.815150924472187 2.072494937940652 38.4154647387619 -7 -7 2
796 2 14.62261909663857 2.058135865735234 36.07192260484474 -8 -7 2
793 2 13.364829034379074 0.2470850423106226 38.40606592673095 -8 -7 2
792 2 12.032689871867241 1.1108640092757875 36.04634138557836 -8 -7 2
794 2 13.334596166798166 3.067787848099518 38.41664854647078 -8 -7 2
206 2 12.052256784215052 4.0305635828054465 36.04472050972857 -8 -8 2
187 2 0.7001090463557259 4.01790109863846 38.41164433844264 -7 -8 2
193 2 1.9442845459585643 5.991747182801107 36.045011572897096 -7 -8 2
188 2 0.6386697337197579 7.000674974328483 38.430046736965714 -7 -8 2
165 2 3.2085815895376846 5.018982696975941 38.40653852461412 -7 -8 2
195 2 3.1748817643145015 7.946616562534387 38.39936811903061 -7 -8 2
172 2 5.750363969809118 5.995805096446091 38.412807015038055 -7 -8 2
171 2 4.4615249621983954 6.97181956785219 36.040219451817926 -7 -8 2
153 2 7.007059232321552 4.997146407598214 36.04100613436549 -7 -8 2
154 2 8.286377037181584 4.030478512100012 38.412401998228304 -7 -8 2
160 2 9.525635262446569 6.000022741306473 36.05941626791559 -7 -8 2
149 2 10.780439195389684 5.044391030554652 38.411521931798454 -7 -8 2
155 2 8.306950623749117 7.009965066278247 38.427961330623674 -7 -8 2
162 3 10.72715420443434 7.978999831933624 38.436284631996976 -7 -8 2
186 2 14.5691503004274 5.016949130941791 36.04790859543865 -8 -8 2
207 2 12.0204922485314 7.005905408516153 36.068150719686344 -8 -8 2
208 2 13.281315562112232 6.012341367504071 38.404493625146415 -8 -8 2
214 2 14.518462757175419 7.968270663559065 36.019848517886 -8 -8 2
781 3 1.9650111824905248 0.2509286351682707 40.73609709805861 -7 -7 2
776 3 0.6926879554970035 1.179998470287859 43.055254294929505 -7 -7 2
782 2 1.9643359123300723 3.0525260282228817 40.766062609694735 -7 -7 2
783 2 3.2048870583326314 2.1151333253243796 43.10379535154898 -7 -7 2
761 3 5.7971353366697205 0.30879887836807374 43.054306734558764 -7 -7 2
760 2 4.497263356719508 1.1343955269047112 40.77248952829952 -7 -7 2
762 2 5.775129268428128 3.0738432606005777 43.12932978619347 -7 -7 2
767 2 7.066335089059669 2.070840281133147 40.794607548893914 -7 -7 2
746 3 9.554585622342021 0.230411731745284 40.77212084229287 -7 -7 2
741 3 8.324120016415035 1.194319277481341 43.06138194624229 -7 -7 2
747 2 9.560963974221783 3.0334418109197814 40.80082331909722 -7 -7 2
748 3 10.760497676898343 2.1005258505681272 43.10854161671472 -7 -7 2
795 2 14.627779738229071 2.0681102632557633 40.76896584788012 -8 -7 2
789 3 13.337993974077218 0.3178429296856355 43.033857080583736 -8 -7 2
788 2 12.045377519344212 1.1377909387197267 40.80577276730551 -8 -7 2
790 2 13.290177727513596 3.05085861315389 43.11384805096794 -8 -7 2
184 2 0.6961930618169119 4.039758154054333 43.132024963048785 -7 -8 2
185 2 0.7093462683556347 6.97459339995384 43.095941966174905 -7 -8 2
189 2 1.9247597908563403 6.004234995946964 40.77454398580622 -7 -8 2
164 2 3.2265390535116225 5.052309938556476 43.14165172536908 -7 -8 2
191 3 3.2334220188299816 7.906308287806535 43.12299677195137 -7 -8 2
167 2 4.4594841065311694 6.968873586407881 40.799253328627216 -7 -8 2
166 2 4.49381846141807 4.045885452586705 40.77377024635885 -7 -8 2
168 2 5.773647270545361 6.028233172432337 43.13160045728643 -7 -8 2
150 2 7.024248752397945 5.019111386389891 40.778535358644575 -7 -8 2
174 2 7.047058070887631 7.944059425918389 40.81423011331198 -7 -8 2
158 2 10.681946365432967 7.8930301007627 43.050226660730644 -7 -8 2
156 2 9.51169382546636 6.031446423991842 40.78220610557971 -7 -8 2
797 2 8.28592115773533 4.046772088734384 43.129728003706326 -7 -8 2
148 2 10.764066871561711 5.011040872697888 43.1259313879552 -7 -8 2
152 3 8.226633754814458 6.968416492335706 43.12368310410907 -7 -8 2
183 2 14.558254907179014 5.045522260044498 40.77069696887237 -8 -8 2
202 2 12.046393891143518 4.047016413226466 40.77521762771318 -8 -8 2
204 2 13.294314980775983 5.982158643776443 43.124179996295275 -8 -8 2
203 2 12.025368048522648 7.020524873466896 40.715980305015385 -8 -8 2
177 2 6.979664188444543 7.952295758912325 36.05898908192149 -7 -8 2
210 3 14.508085516310611 7.949616751582635 40.73402993937964 -8 -8 2
856 3 1.9183011666625185 0.43448712880628015 45.17345923210366 -7 -7 2
852 3 0.6500643361608227 1.4063060017659923 47.168067002667655 -7 -7 2
857 3 1.9643803471760808 3.1574264472392106 45.28643518764599 -7 -7 2
858 3 3.217149034710186 2.335812957751024 47.23909687763511 -7 -7 2
837 3 5.709888986542933 0.5251995800206375 47.249275331334026 -7 -7 2
836 3 4.494528807198411 1.3088445101931756 45.24646987312144 -7 -7 2
838 3 5.718762475424729 3.2186985602914766 47.261902541347695 -7 -7 2
840 3 7.018628933014305 2.2006654558303413 45.247186119308566 -7 -7 2
820 3 9.480732031061178 0.45015640703806625 45.14388002954719 -7 -7 2
816 3 8.207161970899861 1.4130440244007507 47.24624224310455 -7 -7 2
822 3 10.71472744841006 2.2550516777966547 47.247297582741844 -7 -7 2
821 3 9.513187927094862 3.0783852410887604 45.23309917888226 -7 -7 2
868 3 14.57962990243764 2.2027689294830375 45.22833306681687 -8 -7 2
865 3 13.227655327430421 0.5594684807967321 47.22002445473563 -8 -7 2
864 3 11.989006804310476 1.3143117103457618 45.17452649347238 -8 -7 2
866 3 13.249562833512107 3.206353522133926 47.208340732704066 -8 -7 2
279 3 12.050405103252857 4.031050457466351 45.24911556174491 -8 -8 2
261 3 0.6996147583086751 4.135743832559338 47.238402545228915 -7 -8 2
267 3 1.9725758252874663 5.964332820000732 45.294628571599404 -7 -8 2
262 3 0.7195829511110665 6.829994454013318 47.25844468212486 -7 -8 2
239 3 3.230626426627689 5.037188791762293 47.25686667304109 -7 -8 2
269 3 3.249442660247619 7.727802678702707 47.255097958849454 -7 -8 2
244 3 4.493529244242456 4.093640558504713 45.3033664925263 -7 -8 2
246 3 5.7352533928024565 5.941027986568614 47.26258423698305 -7 -8 2
245 3 4.467732415269549 6.917415782458448 45.25708116075665 -7 -8 2
227 3 6.995355763529995 5.03657794889604 45.291257062995754 -7 -8 2
252 3 7.00714179772153 7.814873049435804 45.20243373592197 -7 -8 2
228 3 8.173992692433263 4.097357864337729 47.261006714881965 -7 -8 2
234 3 9.426020680417976 6.017075675452824 45.22163202804226 -7 -8 2
229 3 8.228731095670236 6.84608195561807 47.25795358786659 -7 -8 2
223 2 10.743090687558134 5.019710502883073 47.263246422696 -7 -8 2
236 3 10.787197740566596 7.770090529722389 47.2605893449007 -7 -8 2
260 3 14.576648721435093 5.02137853781683 45.301561193993685 -8 -8 2
281 3 13.345714958845178 5.941385000490733 47.26668503746969 -8 -8 2
280 3 12.04614572031519 6.910705034072461 45.283668075946025 -8 -8 2
286 3 14.59334823357085 7.798641768519348 45.276373069153806 -8 -8 2
853 2 1.9429765897400788 0.5620678845189537 49.320161185791534 -7 -7 2
848 3 0.6569436775815672 1.480482627518843 51.46214020585559 -7 -7 2
855 3 3.2119587279434727 2.3885521925316744 51.389137788949064 -7 -7 2
854 3 1.97789648340308 3.314647348230396 49.30715267470345 -7 -7 2
833 3 5.720200823624934 0.59221221834408 51.3685640018919 -7 -7 2
832 3 4.495529827888627 1.4823389164870633 49.3135925556566 -7 -7 2
839 3 6.942953012653012 2.3521249778305 49.314330883813284 -7 -7 2
834 3 5.711257193880244 3.250912887776524 51.37025450293268 -7 -7 2
817 3 9.455922565838828 0.5733521607080909 49.31086436747592 -7 -7 2
812 3 8.217841779032732 1.4741034797624186 51.36476153262087 -7 -7 2
818 3 9.436230459042168 3.223380217330885 49.33044847997969 -7 -7 2
819 3 10.723084404757083 2.358351544686452 51.36884678812196 -7 -7 2
867 2 14.508250865785183 2.3655871446401044 49.316681590153365 -8 -7 2
861 3 13.243404200673387 0.5684041108173629 51.411937922692694 -8 -7 2
860 3 11.924351192139886 1.444736717892237 49.31816281984592 -8 -7 2
862 3 13.227145847444879 3.27742493401279 51.416804379549696 -8 -7 2
263 3 1.964184882599812 5.915353308524245 49.30038303879456 -7 -8 2
258 3 0.6838575870413948 4.16700830794091 51.38286181244688 -7 -8 2
259 3 0.6959610189488639 6.78723976956525 51.3593977766481 -7 -8 2
238 3 3.209930300498126 5.028375687569497 51.36115777765446 -7 -8 2
265 3 3.2302157130334583 7.672407466509346 51.348677337323124 -7 -8 2
248 3 7.008248163473686 7.687375606639788 49.30597435613461 -7 -8 2
240 3 4.458069891295178 4.143458002081192 49.30971766328626 -7 -8 2
242 3 5.734959571005555 5.903771772691729 51.35554363626289 -7 -8 2
241 3 4.489368767346941 6.803609588744496 49.3035374657124 -7 -8 2
224 3 6.9639692616029345 5.025519595631944 49.31466381232394 -7 -8 2
232 3 10.786669537192205 7.669161091116241 51.36416212982789 -7 -8 2
222 3 10.75012958634246 5.019557933979286 51.36970074832205 -7 -8 2
230 3 9.469522651096787 5.928638897920651 49.35582894291413 -7 -8 2
869 3 8.22327726607201 4.127717340956937 51.365319173828226 -7 -8 2
226 3 8.258369622552703 6.78587968688548 51.361005646199175 -7 -8 2
276 3 12.06140347643757 6.814689827632917 49.33442017674463 -8 -8 2
283 3 14.598990064074387 7.681951800804029 49.316977910512435 -8 -8 2
257 3 14.558229607653278 5.079434991354997 49.3099834486147 -8 -8 2
275 3 12.006311439256946 4.123546535202754 49.365166316182574 -8 -8 2