LAMMPS (22 Dec 2022)
OMP_NUM_THREADS environment is not set. Defaulting to 1 thread. (../comm.cpp:98)
  using 1 OpenMP thread(s) per MPI task
# general variables
variable	temperature equal 300 #change this to the temperature of interest
variable	nsteps_run equal 5000000

# general settings
units		metal
dimension 3
boundary	p p p

#processors      3 3 3
atom_style	atomic

# ------------------- ATOM DEFINE ------------------------------

variable        latparam equal 3.07460999999977             #variable

variable        xl equal 0
variable        xh equal 3
variable        yl equal 0
variable        yh equal 3
variable        zl equal 0
variable        zh equal 16

lattice         bcc ${latparam} orient x 1 1 -2 orient y 1 1 1 orient z 1 -1 0
lattice         bcc 3.07460999999977 orient x 1 1 -2 orient y 1 1 1 orient z 1 -1 0
Lattice spacing in x,y,z = 5.0208171 5.3253807 4.3481552
region          mybox block ${xl} ${xh} ${yl} ${yh} ${zl} ${zh}
region          mybox block 0 ${xh} ${yl} ${yh} ${zl} ${zh}
region          mybox block 0 3 ${yl} ${yh} ${zl} ${zh}
region          mybox block 0 3 0 ${yh} ${zl} ${zh}
region          mybox block 0 3 0 3 ${zl} ${zh}
region          mybox block 0 3 0 3 0 ${zh}
region          mybox block 0 3 0 3 0 16

create_box      5 mybox
Created orthogonal box = (0 0 0) to (15.062451 15.976142 69.570483)
  1 by 2 by 8 MPI processor grid

mass 1 180.948
mass 2 92.9064
mass 3 50.9415
mass 4 95.94
mass 5 183.84

create_atoms 3 box
Created 1152 atoms
  using lattice units in orthogonal box = (0 0 0) to (15.062451 15.976142 69.570483)
  create_atoms CPU = 0.003 seconds
set type 3 type/ratio 2 0.2 384
Setting atom values ...
  230 settings made for type/ratio

# ----------------------- FORCE FIELDS -----------------------
pair_style mlip mlip.ini
pair_coeff * *

# ------------------------- SETTINGS --------------------------
timestep 0.001
delete_atoms overlap 2 all all
System init for delete_atoms ...
Neighbor list info ...
  update: every = 1 steps, delay = 0 steps, check = yes
  max neighbors/atom: 2000, page size: 100000
  master list distance cutoff = 6.8
  ghost atom cutoff = 6.8
  binsize = 3.4, bins = 5 5 21
  2 neighbor lists, perpetual/occasional/extra = 1 1 0
  (1) command delete_atoms, occasional, copy from (2)
      attributes: full, newton on
      pair build: copy
      stencil: none
      bin: none
  (2) pair mlip, perpetual
      attributes: full, newton on
      pair build: full/bin/atomonly
      stencil: full/bin/3d
      bin: standard
Deleted 0 atoms, new total = 1152
velocity all create ${temperature} 4928459 rot yes dist gaussian
velocity all create 300 4928459 rot yes dist gaussian

fix 1 all atom/swap 1 1 114514 ${temperature} types 3 2
fix 1 all atom/swap 1 1 114514 300 types 3 2
fix temp all npt temp ${temperature} ${temperature} 0.1 iso 0 0 0.1
fix temp all npt temp 300 ${temperature} 0.1 iso 0 0 0.1
fix temp all npt temp 300 300 0.1 iso 0 0 0.1
thermo 1000
thermo_style custom step pe ke etotal time cpu tpcpu

dump 1 all custom 20000 dump.* id type x y z
run ${nsteps_run}
run 5000000
Neighbor list info ...
  update: every = 1 steps, delay = 0 steps, check = yes
  max neighbors/atom: 2000, page size: 100000
  master list distance cutoff = 6.8
  ghost atom cutoff = 6.8
  binsize = 3.4, bins = 5 5 21
  1 neighbor lists, perpetual/occasional/extra = 1 0 0
  (1) pair mlip, perpetual
      attributes: full, newton on
      pair build: full/bin/atomonly
      stencil: full/bin/3d
      bin: standard
Per MPI rank memory allocation (min/avg/max) = 4.355 | 4.355 | 4.355 Mbytes
   Step         PotEng         KinEng         TotEng          Time           CPU           T/CPU     
         0  -10614.813      44.633528     -10570.18       0              0              0            
      1000  -10601.152      43.867423     -10557.285      1              114.45834      0.0087368035 
      2000  -10601.403      43.67774      -10557.725      2              227.20535      0.0088694149 
      3000  -10603.393      44.994113     -10558.399      3              338.32488      0.0089993175 
      4000  -10605.127      44.039585     -10561.088      4              451.07022      0.0088695466 
      5000  -10604.848      45.542979     -10559.305      5              564.52154      0.0088143533 
      6000  -10603.089      45.287356     -10557.801      6              679.85233      0.0086707111 
      7000  -10605.76       44.704639     -10561.055      7              797.27296      0.0085163913 
      8000  -10604.696      45.33723      -10559.359      8              913.96303      0.0085697094 
      9000  -10605.473      46.136196     -10559.336      9              1032.8409      0.0084119958 
     10000  -10606.905      45.232197     -10561.673      10             1153.4219      0.0082931758 
     11000  -10605.821      46.015777     -10559.805      11             1274.2565      0.0082757812 
     12000  -10605.727      45.033857     -10560.693      12             1395.474       0.0082496284 
     13000  -10607.469      44.607799     -10562.861      13             1515.5201      0.0083301391 
     14000  -10608.947      44.952524     -10563.995      14             1635.4398      0.008338914  
     15000  -10606.907      45.309538     -10561.598      15             1754.1302      0.0084252803 
     16000  -10608.064      45.050322     -10563.013      16             1875.6244      0.00823084   
     17000  -10608.918      45.241541     -10563.677      17             1994.2162      0.0084322879 
     18000  -10608.804      46.077287     -10562.727      18             2111.0166      0.0085616196 
     19000  -10608.258      45.191356     -10563.066      19             2225.7325      0.0087171864 
     20000  -10607.888      45.81526      -10562.073      20             2341.2121      0.0086595371 
     21000  -10609.644      44.562035     -10565.082      21             2453.8115      0.008881039  
     22000  -10607.791      44.780743     -10563.01       22             2564.8169      0.009008572  
     23000  -10609.449      43.772417     -10565.676      23             2673.543       0.0091974237 
     24000  -10609.117      46.582577     -10562.535      24             2782.5188      0.0091763487 
     25000  -10608.58       42.718309     -10565.862      25             2889.8013      0.0093211868 
     26000  -10608.071      43.991056     -10564.08       26             2998.7317      0.009180171  
     27000  -10609.545      45.194589     -10564.35       27             3107.0947      0.0092282462 
     28000  -10608.947      45.235335     -10563.712      28             3214.4426      0.0093155059 
     29000  -10610.284      44.612311     -10565.671      29             3322.5825      0.0092472747 
     30000  -10608.438      45.895336     -10562.543      30             3430.3562      0.0092787078 
     31000  -10611.16       44.960287     -10566.2        31             3539.024       0.0092023527 
     32000  -10610.257      44.881498     -10565.375      32             3647.0717      0.0092551769 
     33000  -10610.397      43.277243     -10567.12       33             3754.5352      0.0093054819 
     34000  -10610.55       45.710852     -10564.839      34             3862.1149      0.0092954373 
     35000  -10612.173      44.863177     -10567.31       35             3969.7536      0.0092903323 
     36000  -10610.992      45.544781     -10565.447      36             4076.9793      0.0093261272 
     37000  -10612.148      45.136476     -10567.011      37             4184.6863      0.0092844428 
     38000  -10611.908      45.296217     -10566.612      38             4293.1906      0.0092162282 
     39000  -10610.777      47.339789     -10563.437      39             4401.1125      0.0092659599 
     40000  -10611.664      42.982772     -10568.681      40             4509.3484      0.0092390805 
     41000  -10611.529      44.61242      -10566.917      41             4617.6045      0.0092373524 
     42000  -10612.448      44.021875     -10568.426      42             4725.8078      0.0092418665 
     43000  -10614.233      43.405287     -10570.828      43             4834.5911      0.0091925818 
     44000  -10613.685      46.597767     -10567.088      44             4943.6997      0.009165186  
     45000  -10614.443      43.612477     -10570.83       45             5052.9948      0.0091495413 
     46000  -10611.274      43.540837     -10567.734      46             5162.2387      0.0091538261 
     47000  -10614.367      46.180043     -10568.187      47             5271.5305      0.0091498143 
     48000  -10612.056      45.379043     -10566.677      48             5380.7987      0.0091517925 
     49000  -10613.48       44.451889     -10569.028      49             5490.9384      0.0090793786 
     50000  -10613.524      43.695728     -10569.828      50             5600.5148      0.0091260577 
     51000  -10612.295      45.151515     -10567.143      51             5710.7238      0.0090736681 
     52000  -10613.698      44.085965     -10569.612      52             5820.3661      0.0091205695 
     53000  -10612.732      45.775802     -10566.956      53             5929.89        0.009130421  
     54000  -10613.821      44.19081      -10569.63       54             6040.2722      0.0090594383 
     55000  -10615.31       44.053893     -10571.256      55             6150.0905      0.0091059464 
     56000  -10614.852      44.156083     -10570.696      56             6259.665       0.009126209  
     57000  -10615.355      42.464716     -10572.891      57             6369.1907      0.0091302786 
     58000  -10614.888      44.323894     -10570.564      58             6478.57        0.0091425008 
     59000  -10614.192      44.749845     -10569.442      59             6588.1128      0.0091288479 
     60000  -10613.604      45.233929     -10568.37       60             6698.5907      0.0090515896 
     61000  -10614.314      44.013589     -10570.301      61             6808.0054      0.0091395393 
     62000  -10615.6        43.660878     -10571.94       62             6917.7351      0.0091132962 
     63000  -10614.201      44.929153     -10569.272      63             7027.3562      0.0091223325 
     64000  -10615.535      43.296065     -10572.239      64             7137.0305      0.0091179107 
     65000  -10614.976      44.422857     -10570.553      65             7247.2986      0.0090688048 
     66000  -10615.664      45.584941     -10570.079      66             7356.3391      0.0091709052 
     67000  -10615.655      45.247265     -10570.407      67             7465.3717      0.0091715645 
     68000  -10612.831      44.025493     -10568.805      68             7574.4846      0.0091648258 
     69000  -10616.428      44.11705      -10572.311      69             7683.3786      0.0091832355 
     70000  -10615.125      44.595465     -10570.529      70             7792.794       0.0091394859 
     71000  -10615.563      43.107363     -10572.456      71             7902.2422      0.0091367386 
     72000  -10615.536      44.439503     -10571.097      72             8011.6116      0.0091433252 
     73000  -10614.662      43.43419      -10571.228      73             8120.6641      0.0091698957 
     74000  -10616.132      44.420858     -10571.711      74             8229.6246      0.0091776416 
     75000  -10613.992      44.713738     -10569.278      75             8338.6507      0.0091721107 
     76000  -10615.769      44.313833     -10571.455      76             8447.9289      0.009150962  
     77000  -10614.712      44.251907     -10570.46       77             8556.6635      0.0091967042 
     78000  -10615.444      42.217604     -10573.226      78             8665.5971      0.0091798999 
     79000  -10614.158      44.215898     -10569.942      79             8774.938       0.0091457083 
     80000  -10615.85       46.219815     -10569.631      80             8883.9449      0.0091737343 
     81000  -10615.598      44.708288     -10570.89       81             8993.1041      0.0091609308 
     82000  -10615.184      44.861713     -10570.322      82             9102.3891      0.0091503844 
     83000  -10614.663      44.645158     -10570.018      83             9211.1533      0.0091942078 
     84000  -10617.511      43.415711     -10574.095      84             9320.7223      0.0091266641 
     85000  -10616.718      46.641167     -10570.077      85             9430.4471      0.009113714  
     86000  -10615.915      43.285108     -10572.629      86             9541.0337      0.0090426872 
     87000  -10615.071      45.82904      -10569.242      87             9653.8797      0.0088616314 
     88000  -10616.364      45.152283     -10571.212      88             9768.0239      0.0087608504 
     89000  -10616.022      41.673523     -10574.348      89             9882.8714      0.0087071965 
     90000  -10614.131      44.455639     -10569.675      90             9999.6087      0.0085662422 
     91000  -10617.467      46.067945     -10571.399      91             10118.911      0.0083820687 
     92000  -10615.063      44.914638     -10570.149      92             10241.234      0.0081750773 
     93000  -10615.923      44.084967     -10571.838      93             10366.934      0.0079554202 
     94000  -10615.861      45.92413      -10569.937      94             10495.66       0.0077684559 
     95000  -10617.14       41.658379     -10575.482      95             10624.452      0.0077644781 
     96000  -10615.247      45.365517     -10569.882      96             10754.843      0.0076692494 
     97000  -10616.479      42.93421      -10573.545      97             10885.474      0.0076551029 
     98000  -10614.898      45.58541      -10569.312      98             11016.178      0.0076509281 
     99000  -10616.877      44.889156     -10571.988      99             11147.227      0.0076307106 
    100000  -10615.597      46.38654      -10569.211      100            11277.937      0.0076505465 
    101000  -10617.205      44.540072     -10572.664      101            11408.602      0.0076531116 
    102000  -10615.933      44.646026     -10571.287      102            11537.951      0.0077310408 
    103000  -10616.325      45.924974     -10570.4        103            11665.931      0.0078137157 
    104000  -10617.237      44.352175     -10572.884      104            11789.839      0.0080705272 
    105000  -10616.182      45.613041     -10570.569      105            11911.865      0.0081949339 
    106000  -10617.961      46.153232     -10571.808      106            12036.625      0.0080153916 
    107000  -10617.193      43.976469     -10573.216      107            12161.275      0.0080225032 
    108000  -10615.681      44.488145     -10571.193      108            12285.487      0.0080507488 
    109000  -10616.426      45.926492     -10570.5        109            12411.057      0.0079636528 
    110000  -10615.788      42.576619     -10573.211      110            12536.77       0.0079546211 
    111000  -10617.578      46.769097     -10570.809      111            12663.091      0.0079163365 
    112000  -10617.89       43.61295      -10574.277      112            12789.38       0.0079183967 
    113000  -10616.556      44.806833     -10571.749      113            12909.137      0.0083502133 
    114000  -10615.196      44.313284     -10570.883      114            13027.693      0.0084348732 
    115000  -10617.788      44.351209     -10573.437      115            13144.939      0.0085290128 
    116000  -10616.325      45.738052     -10570.587      116            13264.82       0.0083416305 
    117000  -10618.088      43.098922     -10574.989      117            13380.433      0.0086495616 
    118000  -10616.856      45.279137     -10571.577      118            13498.247      0.008487965  
    119000  -10617.373      43.721536     -10573.652      119            13614.179      0.0086257538 
    120000  -10614.019      43.562801     -10570.456      120            13731.571      0.0085184066 
    121000  -10617.425      45.106374     -10572.319      121            13848.364      0.0085622241 
    122000  -10613.68       43.725995     -10569.954      122            13963.779      0.0086643367 
    123000  -10617.048      43.554055     -10573.494      123            14080.061      0.0085997857 
    124000  -10616.606      44.944599     -10571.662      124            14196.165      0.0086129857 
    125000  -10617.881      45.785628     -10572.096      125            14314.767      0.0084315776 
    126000  -10618.269      44.855052     -10573.414      126            14431.929      0.0085351309 
    127000  -10618.136      45.29707      -10572.839      127            14549.29       0.0085207205 
    128000  -10618.164      45.270491     -10572.893      128            14665.652      0.0085939054 
    129000  -10616.762      45.353192     -10571.409      129            14782.194      0.0085805737 
    130000  -10618.457      42.895645     -10575.561      130            14899.937      0.0084931313 
    131000  -10618.048      44.721451     -10573.326      131            15016.692      0.0085649174 
    132000  -10618.946      44.528848     -10574.417      132            15134.741      0.0084710285 
    133000  -10616.452      46.445442     -10570.007      133            15251.087      0.0085950889 
    134000  -10619.112      44.219456     -10574.892      134            15368.496      0.0085172042 
    135000  -10618.182      45.71063      -10572.471      135            15485.169      0.0085709584 
    136000  -10617.343      42.32677      -10575.016      136            15601.36       0.0086065424 
    137000  -10616.389      46.8271       -10569.562      137            15718.492      0.0085373493 
    138000  -10617.69       44.637788     -10573.053      138            15834.355      0.0086309391 
    139000  -10617.307      45.754974     -10571.552      139            15950.167      0.0086346166 
    140000  -10617.85       43.293247     -10574.557      140            16065.728      0.0086534762 
    141000  -10618.253      45.385441     -10572.867      141            16183.162      0.0085154077 
    142000  -10617.766      41.619869     -10576.146      142            16300.44       0.0085267811 
    143000  -10616.351      43.844005     -10572.507      143            16416.813      0.0085930371 
    144000  -10619.402      43.926519     -10575.476      144            16532.499      0.0086440546 
    145000  -10616.818      45.997912     -10570.82       145            16649.053      0.0085797375 
    146000  -10617.994      44.752021     -10573.242      146            16765.345      0.0085990244 
    147000  -10618.436      44.325825     -10574.111      147            16881.331      0.0086217523 
    148000  -10617.5        47.160824     -10570.339      148            16996.982      0.0086467054 
    149000  -10617.24       44.412193     -10572.828      149            17111.34       0.0087444821 
    150000  -10619.565      44.723649     -10574.842      150            17227.733      0.0085916058 
    151000  -10617.29       44.327526     -10572.963      151            17344.752      0.0085455579 
    152000  -10615.451      44.349338     -10571.102      152            17462.041      0.0085259482 
    153000  -10618.077      43.845443     -10574.232      153            17579.341      0.0085252165 
    154000  -10617.679      45.378792     -10572.3        154            17696.629      0.008525993  
    155000  -10619.633      42.908559     -10576.724      155            17815.054      0.0084441923 
    156000  -10617.21       44.78748      -10572.422      156            17933.625      0.0084337214 
    157000  -10620.472      45.019516     -10575.452      157            18054.32       0.0082853433 
    158000  -10617.377      44.747105     -10572.63       158            18173.666      0.0083790259 
    159000  -10617.398      45.005627     -10572.392      159            18295.755      0.0081907633 
    160000  -10619.384      44.85983      -10574.524      160            18422.134      0.0079126934 
    161000  -10617.943      44.25934      -10573.684      161            18549.837      0.007830645  
    162000  -10619.416      45.051029     -10574.365      162            18679.364      0.0077204174 
    163000  -10616.795      46.096542     -10570.698      163            18810.09       0.007649583  
    164000  -10620.149      44.424016     -10575.725      164            18942.207      0.0075690624 
    165000  -10618.35       45.66724      -10572.682      165            19075.394      0.0075082396 
    166000  -10618.257      46.283953     -10571.974      166            19209.573      0.0074527195 
    167000  -10619.114      44.410084     -10574.704      167            19343.713      0.0074548806 
    168000  -10618.574      46.871822     -10571.702      168            19478.096      0.0074414165 
    169000  -10617.756      43.481603     -10574.274      169            19612.617      0.0074337866 
    170000  -10619.378      44.810629     -10574.567      170            19747.444      0.0074169002 
    171000  -10620.668      45.402141     -10575.265      171            19882.423      0.0074085988 
    172000  -10620.729      46.640656     -10574.088      172            20017.792      0.0073872205 
    173000  -10618.544      44.322538     -10574.222      173            20152.443      0.007426582  
    174000  -10619.304      45.068432     -10574.236      174            20286.969      0.0074334822 
    175000  -10619.673      46.467415     -10573.205      175            20421.587      0.0074284305 
    176000  -10618.958      44.104621     -10574.854      176            20553.719      0.0075682427 
    177000  -10619.18       45.499129     -10573.681      177            20685.016      0.007616315  
    178000  -10619.442      46.11579      -10573.327      178            20816.625      0.0075982373 
    179000  -10617.905      44.944516     -10572.961      179            20947.55       0.0076379384 
    180000  -10621.372      45.511479     -10575.861      180            21079.138      0.0075994777 
    181000  -10618.498      45.451121     -10573.046      181            21208.637      0.0077220663 
    182000  -10618.261      41.165855     -10577.095      182            21337.333      0.0077702512 
    183000  -10618.012      43.260328     -10574.752      183            21466.064      0.007768181  
    184000  -10619.09       44.287814     -10574.802      184            21593.737      0.0078325185 
    185000  -10618.632      45.047986     -10573.584      185            21721.566      0.0078229209 
    186000  -10620.255      45.182744     -10575.073      186            21846.633      0.0079957476 
    187000  -10618.916      47.593794     -10571.322      187            21970.027      0.0081040678 
    188000  -10619.954      44.60695      -10575.347      188            22093.221      0.0081172921 
    189000  -10620.446      44.55963      -10575.886      189            22217.677      0.0080349896 
    190000  -10618.343      44.127154     -10574.216      190            22341.139      0.0080996484 
    191000  -10621.328      42.374197     -10578.954      191            22464.779      0.008087964  
    192000  -10619.418      45.621665     -10573.796      192            22588.17       0.0081043535 
    193000  -10619.822      44.824603     -10574.998      193            22711.841      0.00808597   
    194000  -10618.13       46.427648     -10571.702      194            22835.758      0.0080698888 
    195000  -10620.99       44.683453     -10576.307      195            22960.716      0.0080026822 
    196000  -10617.423      43.990598     -10573.432      196            23087.226      0.0079045555 
    197000  -10620.44       43.342473     -10577.097      197            23213.278      0.0079332232 
    198000  -10617.668      43.912232     -10573.755      198            23340.358      0.0078690876 
    199000  -10619.885      45.605027     -10574.28       199            23466.301      0.0079400493 
    200000  -10619.766      43.970236     -10575.796      200            23592.903      0.0078987784 
    201000  -10619.667      45.39553      -10574.271      201            23719.497      0.0078992708 
    202000  -10617.73       45.1551       -10572.574      202            23847.559      0.0078087184 
    203000  -10620.279      43.869138     -10576.41       203            23976.473      0.0077570934 
    204000  -10617.921      45.209835     -10572.711      204            24105.711      0.007737656  
    205000  -10619.157      42.666194     -10576.491      205            24235.523      0.0077035012 
    206000  -10617.852      45.180455     -10572.671      206            24365.252      0.0077083329 
    207000  -10621.101      44.006177     -10577.094      207            24495.382      0.0076846175 
    208000  -10620.034      45.846183     -10574.188      208            24625.971      0.007657659  
    209000  -10621.233      45.80212      -10575.431      209            24756.392      0.0076674683 
    210000  -10617.885      45.18571      -10572.7        210            24887.629      0.0076197935 
    211000  -10619.941      43.292822     -10576.648      211            25018.19       0.0076592793 
    212000  -10619.082      44.615682     -10574.466      212            25149.565      0.007611745  
    213000  -10618.892      45.218523     -10573.673      213            25281.986      0.0075517175 
    214000  -10621.425      44.884366     -10576.541      214            25414.282      0.0075588144 
    215000  -10619.174      45.367111     -10573.807      215            25546.275      0.0075761523 
    216000  -10619.189      44.032489     -10575.156      216            25678.315      0.0075734377 
    217000  -10619.613      45.639114     -10573.974      217            25810.583      0.0075604194 
    218000  -10622.453      44.693106     -10577.76       218            25942.48       0.0075816711 
    219000  -10619.262      45.146181     -10574.116      219            26074.968      0.0075478771 
    220000  -10620.61       43.794872     -10576.815      220            26207.164      0.007564487  
    221000  -10619.062      45.683        -10573.379      221            26339.06       0.0075817616 
    222000  -10619.685      43.204812     -10576.48       222            26471.305      0.0075617249 
    223000  -10618.699      45.089834     -10573.609      223            26603.293      0.007576441  
    224000  -10620.448      44.620225     -10575.827      224            26735.522      0.0075626339 
    225000  -10620.846      45.871688     -10574.974      225            26868.014      0.0075476328 
    226000  -10621.72       46.379085     -10575.341      226            27000.448      0.0075509119 
    227000  -10619.732      46.009053     -10573.723      227            27133.045      0.007541652  
    228000  -10621.909      45.404914     -10576.504      228            27265.299      0.0075612105 
    229000  -10619.856      45.200057     -10574.656      229            27397.593      0.0075589319 
    230000  -10621          43.457229     -10577.543      230            27530.014      0.0075516656 
    231000  -10620.512      44.897593     -10575.615      231            27662.551      0.0075450257 
    232000  -10620.611      44.367162     -10576.244      232            27794.139      0.0075994865 
    233000  -10620.987      45.874755     -10575.112      233            27926.017      0.0075828039 
    234000  -10619.89       42.794557     -10577.096      234            28058.516      0.0075472005 
    235000  -10620.713      47.274014     -10573.439      235            28190.903      0.0075536218 
    236000  -10619.32       43.737122     -10575.583      236            28323.934      0.0075170153 
    237000  -10618.696      45.709803     -10572.986      237            28456.835      0.0075243954 
    238000  -10618.518      43.714787     -10574.804      238            28589.5        0.0075378289 
    239000  -10620.239      42.095005     -10578.144      239            28722.266      0.0075320135 
    240000  -10619.658      45.224415     -10574.434      240            28855.377      0.0075125396 
    241000  -10620.598      44.460276     -10576.138      241            28988.509      0.0075113486 
    242000  -10618.478      43.403928     -10575.074      242            29121.514      0.0075185048 
    243000  -10620.487      43.956975     -10576.53       243            29253.831      0.0075576424 
    244000  -10619.283      45.649022     -10573.634      244            29386.339      0.0075467032 
    245000  -10619.633      43.157924     -10576.475      245            29518.805      0.0075490885 
    246000  -10618.135      44.929081     -10573.206      246            29651.28       0.0075486002 
    247000  -10620.663      43.389101     -10577.274      247            29783.797      0.007546207  
    248000  -10618.673      44.147899     -10574.525      248            29915.931      0.0075680574 
    249000  -10620.35       44.372881     -10575.977      249            30048.865      0.0075225277 
    250000  -10619.921      44.356432     -10575.565      250            30181.09       0.0075628789 
    251000  -10620.398      44.171851     -10576.226      251            30313.306      0.0075633871 
    252000  -10619.972      45.537116     -10574.435      252            30445.36       0.0075726361 
    253000  -10620.169      42.221223     -10577.948      253            30577.037      0.0075943727 
    254000  -10619.197      44.396046     -10574.801      254            30706.795      0.0077066188 
    255000  -10617.565      45.758152     -10571.807      255            30835.581      0.0077648522 
    256000  -10619.296      43.724022     -10575.572      256            30963.898      0.0077932135 
    257000  -10617.959      45.911506     -10572.047      257            31092.186      0.0077949474 
    258000  -10619.326      44.376089     -10574.95       258            31219.271      0.0078687521 
    259000  -10618.92       47.727325     -10571.193      259            31345.055      0.0079501096 
    260000  -10618.877      44.812347     -10574.065      260            31469.42       0.0080408584 
    261000  -10618.657      45.813204     -10572.844      261            31591.385      0.0081990763 
    262000  -10619.586      43.887783     -10575.698      262            31712.896      0.0082296753 
    263000  -10618.205      44.318056     -10573.887      263            31833.018      0.0083249236 
    264000  -10620.795      44.511574     -10576.283      264            31952.374      0.0083783037 
    265000  -10618.595      44.119096     -10574.476      265            32071.863      0.00836895   
    266000  -10619.265      45.761952     -10573.504      266            32191.106      0.0083862568 
    267000  -10620.248      44.699669     -10575.548      267            32310.042      0.0084078275 
    268000  -10616.574      42.827567     -10573.747      268            32427.988      0.0084785121 
    269000  -10620.617      43.719473     -10576.898      269            32545.84       0.0084851911 
    270000  -10620.487      46.518805     -10573.968      270            32664.353      0.0084378602 
    271000  -10619.007      45.084392     -10573.923      271            32783.358      0.0084030287 
    272000  -10619.091      43.684265     -10575.406      272            32903.357      0.0083333961 
    273000  -10618.158      46.442785     -10571.715      273            33023.523      0.0083218532 
    274000  -10617.509      44.004173     -10573.505      274            33143.26       0.0083516518 
    275000  -10620.913      47.112821     -10573.8        275            33263.213      0.0083365637 
    276000  -10617.766      44.130813     -10573.635      276            33382.851      0.0083585362 
    277000  -10617.931      43.444651     -10574.486      277            33501.596      0.0084214024 
    278000  -10618.548      45.001412     -10573.547      278            33621.044      0.0083718515 
    279000  -10617.791      44.429771     -10573.362      279            33741.381      0.0083099887 
    280000  -10619.706      45.094436     -10574.611      280            33863.498      0.008188881  
    281000  -10619.829      44.896966     -10574.932      281            33984.992      0.0082308923 
    282000  -10617.613      46.629159     -10570.984      282            34107.06       0.0081921633 
    283000  -10619.155      43.953621     -10575.201      283            34230.942      0.0080721523 
    284000  -10617.478      45.301555     -10572.177      284            34354.837      0.0080713608 
    285000  -10618.265      43.990027     -10574.274      285            34479.179      0.00804233   
    286000  -10620.772      43.205526     -10577.567      286            34604.447      0.0079829227 
    287000  -10619.015      45.055612     -10573.96       287            34729.566      0.0079923894 
    288000  -10618.402      42.338415     -10576.063      288            34855.323      0.0079517896 
    289000  -10618.656      43.418312     -10575.238      289            34980.936      0.0079609584 
    290000  -10619.583      46.292273     -10573.291      290            35106.844      0.007942356  
    291000  -10621.283      43.719426     -10577.564      291            35232.966      0.0079288001 
    292000  -10619.371      45.789674     -10573.582      292            35358.921      0.0079393465 
    293000  -10620.067      43.408287     -10576.658      293            35485.167      0.0079210753 
    294000  -10618.664      44.285588     -10574.378      294            35612.855      0.0078315356 
    295000  -10619.438      44.372765     -10575.065      295            35741.164      0.0077937332 
    296000  -10618.506      44.372721     -10574.133      296            35868.085      0.0078789089 
    297000  -10619.248      43.949073     -10575.299      297            35994.093      0.0079360184 
    298000  -10620.518      46.228585     -10574.289      298            36120.303      0.0079232609 
    299000  -10620.178      44.26451      -10575.913      299            36247.648      0.0078526962 
    300000  -10619.838      44.949513     -10574.889      300            36372.286      0.008023264  
    301000  -10620.706      46.577992     -10574.128      301            36497.25       0.0080022857 
    302000  -10621.98       43.854279     -10578.126      302            36621.575      0.0080434403 
    303000  -10620.649      45.576065     -10575.073      303            36747.054      0.0079694402 
    304000  -10620.715      44.849355     -10575.866      304            36871.427      0.0080403235 
    305000  -10618.89       45.011133     -10573.878      305            36994.697      0.008112318  
    306000  -10620.005      45.835306     -10574.17       306            37118.072      0.0081053183 
    307000  -10618.97       45.089627     -10573.881      307            37240.198      0.008188302  
    308000  -10622.207      44.386255     -10577.821      308            37360.705      0.0082982535 
    309000  -10618.87       44.551443     -10574.319      309            37479.371      0.0084269893 
    310000  -10620.469      44.28822      -10576.18       310            37597.02       0.0084999208 
    311000  -10619.568      45.230897     -10574.337      311            37713.033      0.0086196807 
    312000  -10619.506      44.192309     -10575.313      312            37829.103      0.0086155303 
    313000  -10617.251      45.558364     -10571.692      313            37944.787      0.0086441922 
    314000  -10619.447      44.772599     -10574.675      314            38058.747      0.0087750348 
    315000  -10619.064      43.755343     -10575.309      315            38173.262      0.0087324548 
    316000  -10617.218      44.122635     -10573.096      316            38288.039      0.0087125823 
    317000  -10619.377      42.904453     -10576.473      317            38401.548      0.0088098237 
    318000  -10617.327      44.614034     -10572.713      318            38516.463      0.0087021    
    319000  -10620.685      42.55723      -10578.128      319            38630.31       0.0087837712 
    320000  -10619.314      46.150605     -10573.163      320            38746.12       0.0086347661 
    321000  -10618.272      42.401965     -10575.87       321            38859.808      0.0087960691 
    322000  -10615.919      44.632482     -10571.287      322            38973.13       0.008824375  
    323000  -10619.175      44.070989     -10575.104      323            39087.359      0.0087543699 
    324000  -10618.217      43.63618      -10574.581      324            39200.466      0.0088411329 
    325000  -10620.359      44.68148      -10575.677      325            39313.907      0.0088152021 
    326000  -10618.971      45.265038     -10573.706      326            39424.791      0.0090184323 
    327000  -10620.206      44.73755      -10575.468      327            39537.628      0.0088622968 
    328000  -10618.131      45.611527     -10572.519      328            39651.222      0.0088033455 
    329000  -10620.33       45.483025     -10574.847      329            39765.605      0.0087425116 
    330000  -10621.111      46.485474     -10574.625      330            39878.363      0.0088685863 
    331000  -10619.303      46.336209     -10572.966      331            39990.165      0.0089443794 
    332000  -10618.833      44.116356     -10574.717      332            40103.807      0.0087995751 
    333000  -10618.111      42.926839     -10575.185      333            40217.397      0.0088035685 
    334000  -10618.916      45.765352     -10573.151      334            40330.334      0.0088544605 
    335000  -10619.098      42.719453     -10576.378      335            40441.051      0.0090320433 
    336000  -10620.076      44.30993      -10575.766      336            40553.243      0.0089133315 
    337000  -10619.95       45.610127     -10574.34       337            40665.42       0.0089144475 
    338000  -10620.631      42.598681     -10578.033      338            40777.297      0.0089384374 
    339000  -10618.817      45.219492     -10573.598      339            40890.246      0.008853483  
    340000  -10619.337      43.544609     -10575.792      340            41002.919      0.0088753113 
    341000  -10619.895      44.526827     -10575.368      341            41117.18       0.0087518803 
    342000  -10619.409      45.240759     -10574.168      342            41230.834      0.0087986443 
    343000  -10619.633      42.498141     -10577.135      343            41346.558      0.0086412256 
    344000  -10619.344      45.329897     -10574.014      344            41464.302      0.0084930052 
    345000  -10620.422      44.536504     -10575.886      345            41583.606      0.0083819571 
    346000  -10618.179      45.58987      -10572.589      346            41703.635      0.0083313107 
    347000  -10619.704      44.327086     -10575.377      347            41826.022      0.0081708052 
    348000  -10621.112      44.745113     -10576.366      348            41950.048      0.0080628382 
    349000  -10617.026      43.680731     -10573.346      349            42075.868      0.0079478306 
    350000  -10620.756      43.973643     -10576.782      350            42201.423      0.0079646383 
    351000  -10618.563      45.2432       -10573.32       351            42328.051      0.007897125  
    352000  -10620.169      43.999004     -10576.17       352            42454.945      0.0078806181 
    353000  -10619.284      44.877289     -10574.406      353            42582.951      0.0078121493 
    354000  -10620.722      43.495723     -10577.227      354            42711.806      0.0077606505 
    355000  -10620.404      45.416971     -10574.987      355            42839.759      0.0078153639 
    356000  -10619.978      44.407815     -10575.57       356            42970.005      0.0076777574 
    357000  -10620.168      45.314495     -10574.854      357            43100.784      0.0076465327 
    358000  -10620.631      44.213652     -10576.417      358            43231.727      0.0076368969 
    359000  -10619.406      45.645002     -10573.761      359            43361.441      0.0077092435 
    360000  -10619.746      46.002552     -10573.743      360            43492.427      0.0076344082 
    361000  -10621.059      45.965233     -10575.094      361            43624.033      0.0075984404 
    362000  -10618.701      43.760067     -10574.941      362            43755.373      0.0076138318 
    363000  -10621.346      43.251134     -10578.095      363            43886.716      0.0076136345 
    364000  -10619.619      44.904074     -10574.715      364            44018.088      0.0076119988 
    365000  -10621.361      43.312384     -10578.049      365            44151.124      0.0075167647 
    366000  -10620.1        46.235711     -10573.864      366            44284.189      0.0075151132 
    367000  -10621.192      46.45888      -10574.733      367            44416.753      0.0075435488 
    368000  -10620.156      46.072077     -10574.084      368            44549.18       0.0075513438 
    369000  -10620.842      45.01501      -10575.827      369            44680.979      0.007587255  
    370000  -10617.737      43.455513     -10574.281      370            44812.793      0.0075864756 
    371000  -10619.712      44.034899     -10575.677      371            44943.782      0.0076342423 
    372000  -10620.702      44.65636      -10576.046      372            45075.182      0.0076103294 
    373000  -10618.643      44.806918     -10573.837      373            45205.857      0.0076525985 
    374000  -10621.045      44.55304      -10576.492      374            45336.991      0.0076257567 
    375000  -10619.341      45.444963     -10573.896      375            45467.517      0.0076613396 
    376000  -10622.005      44.477369     -10577.527      376            45596.843      0.0077323925 
    377000  -10620.688      44.380375     -10576.308      377            45724.711      0.0078205669 
    378000  -10619.273      44.139369     -10575.134      378            45851.441      0.0078907685 
    379000  -10622.474      45.251331     -10577.222      379            45977.206      0.0079513542 
    380000  -10619.664      45.382071     -10574.282      380            46101.572      0.008040756  
    381000  -10620.231      43.819769     -10576.412      381            46225.388      0.0080765491 
    382000  -10619.348      45.233459     -10574.115      382            46348.443      0.00812639   
    383000  -10619.804      45.401322     -10574.403      383            46471.422      0.0081315232 
    384000  -10619.515      43.601647     -10575.914      384            46593.186      0.008212604  
    385000  -10619.914      45.068978     -10574.845      385            46715.568      0.008171085  
    386000  -10617.459      42.89683      -10574.562      386            46839.566      0.0080646961 
    387000  -10620.48       45.813131     -10574.667      387            46965.461      0.0079431325 
    388000  -10618.211      46.06205      -10572.149      388            47092.256      0.0078867459 
    389000  -10619.278      43.892827     -10575.385      389            47219.285      0.0078721882 
    390000  -10619.52       44.753719     -10574.766      390            47347.794      0.0077815415 
    391000  -10619.631      44.784597     -10574.846      391            47476.561      0.0077659668 
    392000  -10619.206      44.517166     -10574.689      392            47606.435      0.0076997586 
    393000  -10619.978      43.279216     -10576.699      393            47736.965      0.0076611095 
    394000  -10619.597      44.222181     -10575.375      394            47867.438      0.0076644135 
    395000  -10618.83       46.356561     -10572.474      395            47997.528      0.0076869794 
    396000  -10620.056      44.114951     -10575.941      396            48127.79       0.0076768124 
    397000  -10620.916      46.108495     -10574.807      397            48258.675      0.0076403238 
    398000  -10619.929      44.192898     -10575.736      398            48389.501      0.0076437374 
    399000  -10617.714      46.445886     -10571.269      399            48520.896      0.0076106383 
    400000  -10619.893      44.262526     -10575.631      400            48651.736      0.0076429371 
    401000  -10620.963      48.12544      -10572.837      401            48783.643      0.0075810877 
    402000  -10620.094      44.175111     -10575.919      402            48916.337      0.0075361618 
    403000  -10618.6        43.241368     -10575.359      403            49047.4        0.0076299205 
    404000  -10619.192      44.291373     -10574.901      404            49178.678      0.0076174085 
    405000  -10618.963      43.833221     -10575.13       405            49308.913      0.0076784    
    406000  -10617.732      45.444466     -10572.287      406            49438.249      0.0077318013 
    407000  -10620.005      43.596741     -10576.408      407            49566.447      0.0078004545 
    408000  -10620.031      45.399463     -10574.632      408            49693.817      0.0078511226 
    409000  -10620.886      44.353397     -10576.532      409            49818.752      0.0080041831 
    410000  -10618.943      44.453345     -10574.49       410            49942.096      0.0081073813 
    411000  -10619.359      43.555254     -10575.804      411            50064.801      0.0081496736 
    412000  -10619.299      48.489302     -10570.81       412            50185.704      0.008271073  
    413000  -10620.224      44.746229     -10575.478      413            50306.318      0.0082909194 
    414000  -10618.012      43.694613     -10574.317      414            50427.703      0.0082382138 
    415000  -10620.011      44.796198     -10575.214      415            50550.081      0.0081714409 
    416000  -10621.697      47.725784     -10573.971      416            50674.342      0.0080475455 
    417000  -10618.917      43.896197     -10575.02       417            50796.1        0.0082130277 
    418000  -10620.436      44.055992     -10576.38       418            50917.149      0.00826109   
    419000  -10620.297      45.977027     -10574.32       419            51037.544      0.0083060403 
    420000  -10620.473      42.520069     -10577.953      420            51160.756      0.0081160502 
    421000  -10618.949      44.195348     -10574.753      421            51285.278      0.008030741  
    422000  -10617.612      44.639502     -10572.972      422            51407.855      0.0081581021 
    423000  -10621.631      45.065227     -10576.566      423            51529.964      0.0081894339 
    424000  -10618.063      44.359196     -10573.704      424            51651.762      0.0082103358 
    425000  -10618.243      43.36435      -10574.879      425            51773.912      0.0081866631 
    426000  -10620.985      44.205961     -10576.779      426            51897.837      0.0080693858 
    427000  -10619.932      46.592508     -10573.339      427            52022.14       0.0080448454 
    428000  -10623.262      45.260571     -10578.002      428            52148.468      0.0079158997 
    429000  -10619.266      44.676092     -10574.589      429            52276.884      0.0077872151 
    430000  -10620.863      45.110662     -10575.752      430            52406.152      0.0077358327 
    431000  -10619.237      45.870724     -10573.367      431            52536.152      0.0076922924 
    432000  -10620.391      44.801223     -10575.589      432            52666.986      0.0076432807 
    433000  -10617.78       42.738631     -10575.042      433            52798.456      0.0076062845 
    434000  -10621.059      45.248994     -10575.81       434            52930.342      0.0075823352 
    435000  -10619.248      43.270601     -10575.977      435            53061.994      0.0075957928 
    436000  -10621.387      42.836021     -10578.551      436            53193.222      0.0076202984 
    437000  -10619.987      45.705392     -10574.281      437            53324.926      0.0075927757 
    438000  -10619.595      43.68435      -10575.911      438            53455.981      0.0076304218 
    439000  -10618.895      44.710471     -10574.185      439            53585.43       0.0077250392 
    440000  -10620.126      44.36994      -10575.756      440            53714.271      0.0077614951 
    441000  -10618.968      45.282167     -10573.686      441            53840.757      0.007906032  
    442000  -10620.411      45.401012     -10575.01       442            53965.584      0.0080110828 
    443000  -10621.267      45.2687       -10575.998      443            54087.815      0.0081812151 
    444000  -10620.378      45.670321     -10574.707      444            54204.951      0.0085371241 
    445000  -10619.495      45.36594      -10574.129      445            54320.968      0.0086193722 
    446000  -10619.468      45.233086     -10574.234      446            54434.539      0.0088051106 
    447000  -10621.35       42.942644     -10578.407      447            54545.958      0.0089751306 
    448000  -10620.152      44.136256     -10576.016      448            54656.099      0.0090792614 
    449000  -10621.07       43.52375      -10577.546      449            54765.611      0.0091313822 
    450000  -10620.652      45.072749     -10575.58       450            54874.955      0.0091454296 
    451000  -10619.035      44.178394     -10574.856      451            54984.317      0.0091439436 
    452000  -10621.35       45.227879     -10576.122      452            55093.9        0.0091255069 
    453000  -10620.293      45.57924      -10574.714      453            55203.578      0.0091176202 
    454000  -10620.963      44.160759     -10576.802      454            55313.75       0.0090767416 
    455000  -10619.434      45.715104     -10573.719      455            55423.178      0.0091383962 
    456000  -10621.948      44.365876     -10577.582      456            55532.839      0.0091190668 
    457000  -10620.853      45.290461     -10575.563      457            55642.249      0.009139913  
    458000  -10620.919      45.104906     -10575.814      458            55751.232      0.0091756897 
    459000  -10618.552      47.219067     -10571.333      459            55861.025      0.0091080763 
    460000  -10620.73       44.03548      -10576.694      460            55970.753      0.0091134924 
    461000  -10619.64       45.067362     -10574.573      461            56080.437      0.0091170864 
    462000  -10619.799      44.842768     -10574.956      462            56190.591      0.0090782147 
    463000  -10620.497      45.064727     -10575.433      463            56300.355      0.0091104309 
    464000  -10621.865      46.863969     -10575.001      464            56410.552      0.0090746388 
    465000  -10622.44       44.558284     -10577.882      465            56520.774      0.0090726129 
    466000  -10619.433      44.346791     -10575.087      466            56632.618      0.0089410085 
    467000  -10618.977      44.32406      -10574.653      467            56746.279      0.0087981183 
    468000  -10621.81       44.730619     -10577.08       468            56863.563      0.0085263052 
    469000  -10618.364      44.821378     -10573.542      469            56981.182      0.0085019888 
    470000  -10620.544      43.764226     -10576.78       470            57101.997      0.0082771492 
    471000  -10620.17       46.103019     -10574.067      471            57221.676      0.0083556777 
    472000  -10621.802      45.583283     -10576.219      472            57341.479      0.0083470391 
    473000  -10617.321      43.879644     -10573.442      473            57463.301      0.0082086753 
    474000  -10621.987      43.785385     -10578.201      474            57585.53       0.0081814076 
    475000  -10618.72       44.468603     -10574.252      475            57708.034      0.0081629781 
    476000  -10619.496      45.027898     -10574.468      476            57830.219      0.0081843363 
    477000  -10622.97       42.903563     -10580.067      477            57955.906      0.0079562479 
    478000  -10619.425      44.287857     -10575.137      478            58082.204      0.007917805  
    479000  -10620.352      44.786691     -10575.565      479            58209.862      0.007833394  
    480000  -10619.616      46.142277     -10573.473      480            58336.972      0.0078672395 
    481000  -10619.983      43.716207     -10576.267      481            58465.233      0.0077965901 
    482000  -10620.667      46.922644     -10573.745      482            58593.88       0.0077732152 
    483000  -10621.897      47.230501     -10574.667      483            58723.073      0.0077403518 
    484000  -10621.153      45.564623     -10575.588      484            58851.316      0.0077977024 
    485000  -10620.808      45.295956     -10575.512      485            58979.321      0.007812182  
    486000  -10620.078      44.354978     -10575.723      486            59107.652      0.0077923205 
    487000  -10619.814      45.277208     -10574.537      487            59236.265      0.0077752744 
    488000  -10619.913      44.744792     -10575.168      488            59364.744      0.007783411  
    489000  -10621.187      42.993692     -10578.193      489            59492.296      0.0078399083 
    490000  -10621.156      43.813693     -10577.342      490            59618.207      0.0079421544 
    491000  -10620.155      43.162877     -10576.992      491            59742.346      0.0080554339 
    492000  -10618.282      44.876858     -10573.405      492            59866.807      0.0080346611 
    493000  -10621.286      44.982241     -10576.304      493            59988.608      0.0082101209 
    494000  -10621.466      47.004695     -10574.461      494            60113.386      0.0080142448 
    495000  -10623.047      44.63974      -10578.407      495            60238.205      0.008011594  
    496000  -10619.11       45.09607      -10574.014      496            60364.175      0.0079383607 
    497000  -10620.988      43.471987     -10577.516      497            60493.104      0.0077562149 
    498000  -10619.501      45.750435     -10573.75       498            60622.599      0.0077223052 
    499000  -10619.907      43.454781     -10576.453      499            60752.365      0.0077062166 
    500000  -10621.484      45.806322     -10575.677      500            60884.58       0.0075634163 
    501000  -10619.941      44.55412      -10575.387      501            61016.674      0.0075703739 
    502000  -10619.99       44.583469     -10575.407      502            61149.112      0.007550709  
    503000  -10620.651      45.028321     -10575.623      503            61280.245      0.0076258624 
    504000  -10620.758      42.38301      -10578.375      504            61410.634      0.0076693212 
    505000  -10619.095      43.82976      -10575.265      505            61539.926      0.0077344315 
    506000  -10621.995      42.791374     -10579.204      506            61669.679      0.0077069723 
    507000  -10619.865      44.342859     -10575.522      507            61797.37       0.0078313914 
    508000  -10620.283      45.416119     -10574.866      508            61923.158      0.0079498773 
    509000  -10620.666      43.766436     -10576.899      509            62047.162      0.0080642857 
    510000  -10620.667      43.977506     -10576.689      510            62168.098      0.0082688396 
    511000  -10620.668      44.453363     -10576.215      511            62288.642      0.008295728  
    512000  -10620.506      44.413279     -10576.092      512            62411.48       0.0081407651 
    513000  -10620.061      45.862452     -10574.199      513            62534.243      0.0081458011 
    514000  -10621.842      44.668949     -10577.173      514            62660.69       0.0079084698 
    515000  -10619.076      45.448855     -10573.627      515            62788.149      0.0078456424 
    516000  -10618.917      43.884058     -10575.033      516            62917.17       0.0077506835 
    517000  -10622.007      44.985576     -10577.021      517            63046.77       0.0077160383 
    518000  -10619.515      44.951179     -10574.563      518            63176.478      0.0077096405 
    519000  -10621.746      42.821425     -10578.924      519            63306.868      0.0076692618 
    520000  -10619.47       44.831264     -10574.639      520            63436.175      0.0077335228 
    521000  -10620.231      44.125467     -10576.105      521            63566.092      0.0076972635 
    522000  -10618.947      44.941724     -10574.005      522            63695.584      0.0077224458 
    523000  -10618.515      43.230564     -10575.284      523            63824.479      0.0077582623 
    524000  -10618.05       44.945192     -10573.105      524            63952.244      0.0078268571 
    525000  -10621.759      45.221677     -10576.538      525            64078.257      0.0079357192 
    526000  -10617.989      44.675582     -10573.314      526            64203.636      0.0079757925 
    527000  -10620.707      43.55059      -10577.156      527            64325.922      0.0081776026 
    528000  -10619.253      45.513763     -10573.739      528            64444.908      0.008404322  
    529000  -10619.662      43.422282     -10576.24       529            64559.781      0.0087052366 
    530000  -10622.288      43.233724     -10579.054      530            64673.466      0.0087962366 
    531000  -10619.572      43.625059     -10575.947      531            64785.546      0.0089222513 
    532000  -10620.46       44.304106     -10576.156      532            64897.429      0.0089379197 
    533000  -10620.968      44.170621     -10576.797      533            65007.993      0.0090444756 
    534000  -10619.634      45.887412     -10573.746      534            65117.986      0.0090915417 
    535000  -10620.107      44.005064     -10576.102      535            65228.021      0.0090879474 
    536000  -10619.763      44.976973     -10574.786      536            65338.018      0.0090912366 
    537000  -10621.484      45.239546     -10576.244      537            65448.519      0.0090496865 
    538000  -10620.953      43.787655     -10577.165      538            65558.229      0.0091149116 
    539000  -10619.85       44.032742     -10575.817      539            65667.693      0.0091354434 
    540000  -10622.904      45.585091     -10577.319      540            65777.647      0.0090946713 
    541000  -10618.783      45.0572       -10573.726      541            65887.476      0.0091050829 
    542000  -10620.245      44.277248     -10575.967      542            65997.987      0.0090488556 
    543000  -10620.796      42.88923      -10577.907      543            66109.107      0.0089993341 
    544000  -10620.572      44.99092      -10575.581      544            66219.91       0.0090250145 
    545000  -10621.987      45.297807     -10576.689      545            66331.716      0.0089440004 
    546000  -10618.92       45.064202     -10573.856      546            66444.151      0.0088940794 
    547000  -10620.893      43.933328     -10576.96       547            66559.461      0.0086722505 
    548000  -10619.654      47.056474     -10572.597      548            66677.025      0.0085060113 
    549000  -10620.123      45.355603     -10574.767      549            66797.669      0.0082888618 
    550000  -10622.41       42.87285      -10579.537      550            66919.003      0.0082416945 
    551000  -10619.88       45.035181     -10574.845      551            67046.003      0.0078740056 
    552000  -10621.903      43.899427     -10578.004      552            67173.559      0.0078397091 
    553000  -10619.787      45.495527     -10574.291      553            67302.182      0.0077746506 
    554000  -10620.458      45.396532     -10575.061      554            67431.856      0.0077116308 
    555000  -10620.531      44.850654     -10575.68       555            67561.535      0.0077113997 
    556000  -10619.677      44.846415     -10574.83       556            67691.373      0.0077018823 
    557000  -10622.415      44.017712     -10578.397      557            67820.779      0.0077276268 
    558000  -10619.549      44.31878      -10575.23       558            67950.248      0.0077238155 
    559000  -10621.95       45.27687      -10576.673      559            68078.742      0.0077824899 
    560000  -10622.953      46.124667     -10576.828      560            68206.562      0.0078234763 
    561000  -10621.312      44.500436     -10576.811      561            68332.956      0.0079117984 
    562000  -10617.801      42.996847     -10574.804      562            68459.645      0.0078933712 
    563000  -10620.091      43.389757     -10576.701      563            68585.593      0.0079397314 
    564000  -10619.694      44.415206     -10575.279      564            68709.786      0.0080520289 
    565000  -10620.79       45.586581     -10575.204      565            68832.665      0.0081380638 
    566000  -10619.532      45.31756      -10574.214      566            68958.238      0.0079635322 
    567000  -10618.884      44.380169     -10574.503      567            69087.782      0.0077193824 
    568000  -10621.288      44.369218     -10576.919      568            69220.52       0.0075335943 
    569000  -10619.976      46.623351     -10573.352      569            69352.973      0.0075498795 
    570000  -10621.757      43.926817     -10577.83       570            69487.172      0.0074516263 
    571000  -10621.273      45.322937     -10575.95       571            69621.798      0.0074279811 
    572000  -10619.653      46.111825     -10573.541      572            69757.246      0.0073829202 
    573000  -10619.119      43.058563     -10576.06       573            69892.641      0.0073857648 
    574000  -10618.903      44.64891      -10574.254      574            70027.585      0.007410474  
    575000  -10620.216      45.021503     -10575.194      575            70162.374      0.0074190231 
    576000  -10620.647      45.532301     -10575.115      576            70295.545      0.0075091133 
    577000  -10618.152      42.187062     -10575.965      577            70428.699      0.0075101257 
    578000  -10620.03       47.112265     -10572.918      578            70559.818      0.0076266648 
    579000  -10621.772      45.63892      -10576.133      579            70687.632      0.0078238633 
    580000  -10618.919      46.134336     -10572.784      580            70810.519      0.0081375841 
    581000  -10618.866      44.279475     -10574.587      581            70932.851      0.0081744332 
    582000  -10620.851      45.277974     -10575.573      582            71055.881      0.0081280973 
    583000  -10619.402      45.066361     -10574.335      583            71179.698      0.0080764756 
    584000  -10621.001      44.06648      -10576.935      584            71305.452      0.0079520087 
    585000  -10619.382      44.747397     -10574.635      585            71432.389      0.0078779367 
    586000  -10620.861      45.448811     -10575.412      586            71560.378      0.007813182  
    587000  -10620.15       44.226578     -10575.923      587            71688.177      0.0078247664 
    588000  -10619.051      44.874891     -10574.176      588            71816.502      0.0077926861 
    589000  -10620.741      43.760789     -10576.98       589            71944.712      0.0077997237 
    590000  -10621.069      45.346431     -10575.722      590            72073.082      0.007789996  
    591000  -10620.686      45.640579     -10575.045      591            72200.191      0.0078672488 
    592000  -10620.382      43.194455     -10577.187      592            72325.402      0.0079865381 
    593000  -10620.312      46.370431     -10573.941      593            72448.728      0.0081085941 
    594000  -10620.584      44.844078     -10575.739      594            72568.951      0.0083178889 
    595000  -10621.772      45.266029     -10576.506      595            72688.702      0.0083506295 
    596000  -10619.314      44.309384     -10575.005      596            72808.135      0.0083728682 
    597000  -10621.276      45.125105     -10576.151      597            72928.765      0.0082898101 
    598000  -10620.923      44.228831     -10576.695      598            73052.683      0.0080698831 
    599000  -10620.088      44.87548      -10575.212      599            73179.821      0.0078654371 
    600000  -10622.661      45.110075     -10577.55       600            73308.846      0.0077504481 
    601000  -10620.674      44.512255     -10576.162      601            73436.548      0.0078307758 
    602000  -10619.713      44.221018     -10575.492      602            73563.04       0.0079056197 
    603000  -10620.204      46.509432     -10573.695      603            73687.834      0.0080132181 
    604000  -10621.087      44.690914     -10576.396      604            73812.735      0.0080062908 
    605000  -10620.278      42.448693     -10577.829      605            73934.721      0.0081977016 
    606000  -10621.742      47.126292     -10574.616      606            74054.438      0.0083530191 
    607000  -10621.715      43.127725     -10578.588      607            74169.974      0.0086553042 
    608000  -10619.922      44.272506     -10575.65       608            74281.625      0.0089564994 
    609000  -10619.993      42.98131      -10577.011      609            74393.482      0.0089399844 
    610000  -10620.078      46.12955      -10573.949      610            74504.895      0.0089756153 
    611000  -10620.237      44.474387     -10575.763      611            74616.976      0.008922107  
    612000  -10619.945      44.894761     -10575.051      612            74730.627      0.0087988354 
    613000  -10620.884      44.847187     -10576.037      613            74844.683      0.0087676542 
    614000  -10621.881      42.978819     -10578.902      614            74961.034      0.0085946994 
    615000  -10618.717      43.703579     -10575.013      615            75081.1        0.0083287562 
    616000  -10622.234      44.150895     -10578.083      616            75202.281      0.0082521292 
    617000  -10620.107      45.543686     -10574.563      617            75324.459      0.0081847716 
    618000  -10620.698      43.258849     -10577.44       618            75449.998      0.0079656328 
    619000  -10621.399      43.669509     -10577.729      619            75577.883      0.0078195297 
    620000  -10619.697      45.165654     -10574.532      620            75707.008      0.0077444444 
    621000  -10622.777      45.883779     -10576.893      621            75837.105      0.007686542  
    622000  -10618.873      47.014229     -10571.859      622            75966.91       0.0077038566 
    623000  -10619.116      43.503989     -10575.612      623            76097.173      0.0076768044 
    624000  -10622.25       45.353611     -10576.897      624            76227.788      0.0076561035 
    625000  -10620.526      44.155444     -10576.371      625            76358.407      0.0076558504 
    626000  -10621.216      43.977544     -10577.238      626            76488.889      0.0076638604 
    627000  -10618.456      43.72071      -10574.735      627            76619.898      0.0076330959 
    628000  -10620.651      43.824442     -10576.827      628            76750.305      0.0076682732 
    629000  -10618.237      44.531208     -10573.706      629            76880.179      0.0076997629 
    630000  -10621.838      45.50454      -10576.333      630            77008.386      0.0077998853 
    631000  -10620.605      43.583283     -10577.022      631            77136.255      0.0078205072 
    632000  -10619.908      42.906216     -10577.002      632            77262.974      0.0078914628 
    633000  -10620.688      45.284763     -10575.403      633            77388          0.0079983658 
    634000  -10620.818      44.618579     -10576.2        634            77511.389      0.0081044565 
    635000  -10620.701      43.607902     -10577.093      635            77636.903      0.0079672307 
    636000  -10618.336      45.364964     -10572.971      636            77763.716      0.0078856395 
    637000  -10620.345      44.120048     -10576.225      637            77893.163      0.0077251732 
    638000  -10619.649      45.337864     -10574.311      638            78025.379      0.0075633643 
    639000  -10620.632      45.065812     -10575.566      639            78155.676      0.0076747901 
    640000  -10622.644      44.754883     -10577.889      640            78287.127      0.0076074105 
    641000  -10619.418      44.593164     -10574.825      641            78419.978      0.0075271881 
    642000  -10621.207      41.872018     -10579.335      642            78553.669      0.0074799761 
    643000  -10619.369      44.851229     -10574.518      643            78687.46       0.0074742976 
    644000  -10622.635      45.135006     -10577.5        644            78819.727      0.0075605016 
    645000  -10619.81       47.643386     -10572.167      645            78951.05       0.0076147807 
    646000  -10621.043      44.934952     -10576.108      646            79081.992      0.007636977  
    647000  -10619.371      44.271947     -10575.099      647            79211.584      0.0077165425 
    648000  -10622.146      44.064165     -10578.082      648            79339.27       0.0078317234 
    649000  -10620.507      44.878044     -10575.629      649            79465.521      0.0079206941 
    650000  -10619.554      44.272808     -10575.281      650            79589.424      0.0080708498 
    651000  -10620.747      46.998374     -10573.749      651            79712.399      0.0081317541 
    652000  -10621.544      44.497706     -10577.046      652            79837.881      0.0079692582 
    653000  -10619.882      44.844305     -10575.038      653            79965.317      0.007847054  
    654000  -10620.66       43.906538     -10576.753      654            80095.114      0.0077043366 
    655000  -10620.171      45.031114     -10575.14       655            80225.486      0.0076703615 
    656000  -10620.748      43.895959     -10576.852      656            80356.243      0.0076478084 
    657000  -10620.616      46.028453     -10574.588      657            80487.317      0.0076292433 
    658000  -10619.713      44.176625     -10575.536      658            80618.497      0.0076231488 
    659000  -10621.34       45.946154     -10575.394      659            80749.73       0.0076200073 
    660000  -10620.166      43.23752      -10576.929      660            80880.586      0.0076420073 
    661000  -10620.512      43.676946     -10576.835      661            81011.072      0.007663662  
    662000  -10619.548      45.402377     -10574.146      662            81140.638      0.0077180795 
    663000  -10620.633      44.089998     -10576.543      663            81269.002      0.007790289  
    664000  -10620.457      44.666228     -10575.791      664            81393.332      0.0080431413 
    665000  -10619.859      44.178127     -10575.68       665            81516.267      0.008134392  
    666000  -10619.831      45.110418     -10574.721      666            81641.699      0.0079724156 
    667000  -10621.468      42.448434     -10579.019      667            81767.598      0.0079428834 
    668000  -10619.663      44.960146     -10574.703      668            81896.069      0.0077838573 
    669000  -10619.681      42.018885     -10577.662      669            82027.398      0.0076144753 
    670000  -10620.061      46.204416     -10573.857      670            82158.438      0.0076312635 
    671000  -10622.176      45.165071     -10577.011      671            82290.471      0.0075738857 
    672000  -10620.216      45.052476     -10575.164      672            82419.236      0.0077660497 
    673000  -10621.267      43.517698     -10577.75       673            82547.088      0.0078215479 
    674000  -10619.706      45.484792     -10574.221      674            82675.045      0.0078151415 
    675000  -10620.613      44.322391     -10576.291      675            82800.248      0.0079870025 
    676000  -10619.182      44.677614     -10574.505      676            82926.245      0.0079367259 
    677000  -10619.447      45.738627     -10573.708      677            83049.117      0.0081385567 
    678000  -10619.944      42.734689     -10577.21       678            83169.748      0.0082897203 
    679000  -10620.478      42.530569     -10577.948      679            83287.118      0.0085200496 
    680000  -10620.317      45.769777     -10574.547      680            83403.236      0.0086119588 
    681000  -10620.726      43.996568     -10576.729      681            83516.387      0.0088377372 
    682000  -10620.897      46.31897      -10574.578      682            83628.446      0.0089238272 
    683000  -10619.922      45.323434     -10574.599      683            83740.041      0.0089609869 
    684000  -10620.723      43.531056     -10577.192      684            83853.885      0.0087839846 
    685000  -10621.254      45.011592     -10576.243      685            83967.855      0.0087741961 
    686000  -10620.822      45.006913     -10575.815      686            84085.436      0.0085048006 
    687000  -10619.948      44.55033      -10575.398      687            84205.589      0.0083227381 
    688000  -10619.888      44.265829     -10575.622      688            84330.451      0.0080088274 
    689000  -10620.691      45.11563      -10575.576      689            84457.746      0.007855783  
    690000  -10621.676      43.467918     -10578.208      690            84586.232      0.0077829692 
    691000  -10620.876      46.359624     -10574.517      691            84716.548      0.0076736143 
    692000  -10621.316      44.005256     -10577.31       692            84847.362      0.0076444817 
    693000  -10620.786      45.702274     -10575.084      693            84977.835      0.0076643742 
    694000  -10621.096      44.696965     -10576.399      694            85108.39       0.0076596371 
    695000  -10620.162      44.862806     -10575.299      695            85237.598      0.0077394269 
    696000  -10620.975      43.438424     -10577.537      696            85363.821      0.007922536  
    697000  -10621.187      45.117326     -10576.069      697            85487.298      0.0080986145 
    698000  -10621.79       45.800608     -10575.99       698            85609.686      0.0081707981 
    699000  -10621.276      43.446715     -10577.83       699            85734.03       0.0080421638 
    700000  -10620.297      45.616412     -10574.681      700            85862.137      0.0078059902 
    701000  -10621.044      45.901121     -10575.143      701            85991.988      0.00770111   
    702000  -10621.568      45.248319     -10576.32       702            86123.84       0.0075842653 
    703000  -10618.313      42.27728      -10576.036      703            86257.242      0.0074961272 
    704000  -10621.448      45.01885      -10576.429      704            86392.832      0.0073751927 
    705000  -10620.293      44.888316     -10575.404      705            86528.137      0.0073907185 
    706000  -10622.231      44.159683     -10578.071      706            86663.856      0.0073681677 
    707000  -10619.975      45.53173      -10574.443      707            86797.631      0.0074752117 
    708000  -10621.964      44.864554     -10577.099      708            86931.091      0.0074928896 
    709000  -10619.357      43.559289     -10575.798      709            87063.03       0.0075792535 
    710000  -10619.614      45.026448     -10574.588      710            87193.018      0.0076930508 
    711000  -10621.413      45.055649     -10576.357      711            87322.968      0.0076952436 
    712000  -10620.713      44.425045     -10576.288      712            87449.375      0.0079109691 
    713000  -10619.528      45.954471     -10573.574      713            87572.754      0.0081051346 
    714000  -10620.594      43.020594     -10577.573      714            87697.783      0.0079981106 
    715000  -10619.984      45.665997     -10574.318      715            87824.113      0.007915758  
    716000  -10620.809      44.545801     -10576.263      716            87951.643      0.0078413194 
    717000  -10620.408      44.997763     -10575.411      717            88080.241      0.0077761427 
    718000  -10621.832      44.953861     -10576.879      718            88210.315      0.0076879417 
    719000  -10619.481      45.351324     -10574.13       719            88341.068      0.0076480076 
    720000  -10620.325      43.7077       -10576.617      720            88471.312      0.0076779045 
    721000  -10622.291      45.497407     -10576.794      721            88601.117      0.0077038818 
    722000  -10620.883      46.434749     -10574.448      722            88730.634      0.007720954  
    723000  -10620.367      42.156133     -10578.211      723            88861.018      0.0076696678 
    724000  -10622.26       44.597955     -10577.662      724            88990.737      0.0077090037 
    725000  -10619.497      44.232394     -10575.264      725            89118.43       0.0078312564 
    726000  -10623.348      42.717117     -10580.63       726            89245.303      0.007881878  
    727000  -10620.929      45.382957     -10575.546      727            89370.092      0.0080135451 
    728000  -10622.94       44.775963     -10578.164      728            89490.562      0.0083008392 
    729000  -10620.368      44.897242     -10575.471      729            89613.103      0.0081605209 
    730000  -10621.125      45.423794     -10575.701      730            89736.232      0.0081215925 
    731000  -10621.362      46.028915     -10575.333      731            89861.256      0.0079984346 
    732000  -10622.621      43.040634     -10579.581      732            89988.919      0.0078331595 
    733000  -10620.447      44.299314     -10576.148      733            90121.484      0.0075434474 
    734000  -10621.699      45.293409     -10576.405      734            90251.831      0.007671821  
    735000  -10621.56       44.122752     -10577.437      735            90382.161      0.007672857  
    736000  -10620.058      45.09787      -10574.96       736            90512.4        0.0076781393 
    737000  -10622.433      45.33643      -10577.097      737            90643.468      0.0076296409 
    738000  -10618.299      43.111312     -10575.188      738            90773.672      0.0076802715 
    739000  -10620.409      46.425192     -10573.983      739            90901.813      0.0078039162 
    740000  -10622.428      45.361642     -10577.067      740            91027.968      0.0079267121 
    741000  -10621.926      44.424724     -10577.502      741            91150.811      0.0081404842 
    742000  -10620.912      43.948845     -10576.963      742            91272.629      0.0082089909 
    743000  -10618.947      44.690066     -10574.257      743            91391.491      0.0084130986 
    744000  -10621.188      44.272551     -10576.915      744            91508.101      0.0085756241 
    745000  -10620.937      45.476319     -10575.46       745            91622.12       0.0087704407 
    746000  -10621.562      44.270298     -10577.292      746            91733.203      0.009002309  
    747000  -10619.467      44.630282     -10574.837      747            91844.747      0.0089650868 
[...]
   4888000  -10621.421      45.401466     -10576.02       4888           613079.65      0.0074690791 
   4889000  -10622.042      45.92389      -10576.118      4889           613210.59      0.0076370028 
   4890000  -10621.584      44.391718     -10577.192      4890           613341.6       0.007632771  
   4891000  -10624.405      44.844351     -10579.56       4891           613471.53      0.0076964565 
   4892000  -10621.721      45.306688     -10576.414      4892           613600.22      0.0077706489 
   4893000  -10623.261      43.332769     -10579.929      4893           613727.5       0.0078565129 
   4894000  -10623.452      45.249835     -10578.202      4894           613854.5       0.0078740272 
   4895000  -10622.82       44.468595     -10578.351      4895           613978.83      0.0080431298 
   4896000  -10622.046      46.764374     -10575.281      4896           614102.27      0.0081012821 
   4897000  -10621.82       43.256382     -10578.563      4897           614225.52      0.0081136272 
   4898000  -10621.766      46.016929     -10575.749      4898           614349.63      0.0080574472 
   4899000  -10621.691      43.700627     -10577.99       4899           614474.47      0.0080101211 
   4900000  -10621.815      45.36188      -10576.454      4900           614599.34      0.008008625  
   4901000  -10621.269      45.368482     -10575.901      4901           614725.8       0.0079074022 
   4902000  -10623.563      45.25341      -10578.31       4902           614851.97      0.00792589   
   4903000  -10621.615      44.607044     -10577.008      4903           614979.31      0.0078527688 
   4904000  -10620.226      43.242814     -10576.983      4904           615108.17      0.0077602586 
   4905000  -10620.64       46.00977      -10574.63       4905           615237.64      0.0077239418 
   4906000  -10621.386      43.938457     -10577.448      4906           615368.97      0.0076145254 
   4907000  -10622.134      44.676481     -10577.458      4907           615502.24      0.0075037314 
   4908000  -10621.91       44.018985     -10577.891      4908           615634.64      0.007552897  
   4909000  -10620.817      44.272356     -10576.545      4909           615767.69      0.0075158717 
   4910000  -10621.483      43.543513     -10577.939      4910           615900.37      0.0075369754 
   4911000  -10621.225      45.219122     -10576.006      4911           616032.27      0.0075815551 
   4912000  -10622.536      44.124967     -10578.411      4912           616164.82      0.0075441636 
   4913000  -10621.566      43.704222     -10577.862      4913           616297.54      0.0075347203 
   4914000  -10620.566      46.563064     -10574.003      4914           616429.06      0.0076033423 
   4915000  -10620.66       44.13041      -10576.529      4915           616559.56      0.0076628851 
   4916000  -10622.919      42.228646     -10580.69       4916           616688.33      0.0077657947 
   4917000  -10621.126      45.683529     -10575.443      4917           616817.19      0.0077603719 
   4918000  -10621.822      45.492192     -10576.33       4918           616947.24      0.0076890796 
   4919000  -10622.34       46.396478     -10575.943      4919           617077.95      0.0076508329 
   4920000  -10622.038      46.824447     -10575.213      4920           617206.33      0.0077891365 
   4921000  -10621.084      43.775783     -10577.308      4921           617334.51      0.0078017868 
   4922000  -10620.764      45.018781     -10575.745      4922           617462.73      0.0077991647 
   4923000  -10620.459      44.118068     -10576.341      4923           617591.72      0.0077523857 
   4924000  -10620.813      45.693704     -10575.119      4924           617719.42      0.0078309597 
   4925000  -10622.63       45.126939     -10577.503      4925           617846.72      0.0078549975 
   4926000  -10620.919      44.997853     -10575.922      4926           617971.52      0.0080129643 
   4927000  -10621.754      44.232863     -10577.521      4927           618096.27      0.0080159345 
   4928000  -10620.331      46.513237     -10573.818      4928           618219.03      0.0081462079 
   4929000  -10621.862      45.696464     -10576.166      4929           618341.01      0.0081980866 
   4930000  -10619.803      44.901607     -10574.902      4930           618462.97      0.0081992519 
   4931000  -10620.691      41.634452     -10579.057      4931           618585.22      0.0081800563 
   4932000  -10619.556      43.450972     -10576.105      4932           618708.61      0.0081045499 
   4933000  -10624.366      42.721821     -10581.644      4933           618834.04      0.0079725615 
   4934000  -10620.462      45.121856     -10575.34       4934           618962.01      0.0078145544 
   4935000  -10622.625      45.760637     -10576.865      4935           619090.72      0.0077694012 
   4936000  -10620.151      45.629565     -10574.521      4936           619219.79      0.0077474273 
   4937000  -10621.328      44.49454      -10576.833      4937           619349.62      0.007702366  
   4938000  -10622.05       45.509509     -10576.541      4938           619479.52      0.0076981012 
   4939000  -10620.979      45.866953     -10575.112      4939           619610.7       0.0076233095 
   4940000  -10620.779      42.67933      -10578.099      4940           619741.6       0.0076395237 
   4941000  -10620.79       44.250885     -10576.539      4941           619872.94      0.0076136123 
   4942000  -10623.283      43.524878     -10579.758      4942           620004.1       0.0076243304 
   4943000  -10621.066      44.614222     -10576.452      4943           620135.4       0.0076160439 
   4944000  -10620.88       44.799765     -10576.08       4944           620266.49      0.0076285515 
   4945000  -10621.959      43.327647     -10578.631      4945           620397.18      0.0076514819 
   4946000  -10620.808      43.708418     -10577.099      4946           620527.8       0.0076561484 
   4947000  -10620.381      46.704593     -10573.677      4947           620659.28      0.0076056729 
   4948000  -10623.228      43.956493     -10579.272      4948           620789.79      0.0076622981 
   4949000  -10619.727      42.272076     -10577.455      4949           620920.25      0.007664789  
   4950000  -10622.096      44.424672     -10577.672      4950           621050.87      0.007655874  
   4951000  -10623.272      45.352914     -10577.919      4951           621181.16      0.0076751528 
   4952000  -10622.342      44.825117     -10577.517      4952           621311.36      0.0076806226 
   4953000  -10621.676      44.228308     -10577.447      4953           621441.22      0.0077007533 
   4954000  -10620.884      45.791909     -10575.092      4954           621568.81      0.0078371313 
   4955000  -10621.788      43.723127     -10578.064      4955           621695.56      0.0078901531 
   4956000  -10622.29       45.677116     -10576.613      4956           621822.89      0.007853126  
   4957000  -10621.455      45.430555     -10576.025      4957           621947.06      0.0080539934 
   4958000  -10620.963      42.700061     -10578.263      4958           622070.2       0.0081201979 
   4959000  -10622.617      46.061736     -10576.555      4959           622193.5       0.0081103909 
   4960000  -10623.132      45.26378      -10577.868      4960           622316.48      0.0081318909 
   4961000  -10621.992      44.57616      -10577.415      4961           622438.96      0.0081645936 
   4962000  -10621.42       45.025816     -10576.394      4962           622562.4       0.0081005597 
   4963000  -10622.759      43.644788     -10579.115      4963           622687.05      0.0080226267 
   4964000  -10620.188      44.389905     -10575.798      4964           622812.17      0.0079926329 
   4965000  -10621.681      43.198515     -10578.483      4965           622937.61      0.0079716168 
   4966000  -10620.455      45.1517       -10575.303      4966           623063.12      0.0079678018 
   4967000  -10622.482      46.127912     -10576.354      4967           623191.67      0.0077788241 
   4968000  -10623.221      43.484276     -10579.737      4968           623320.49      0.0077630702 
   4969000  -10620.112      43.336475     -10576.775      4969           623450.41      0.0076970861 
   4970000  -10621.454      44.741216     -10576.713      4970           623578.93      0.0077806709 
   4971000  -10621.33       44.292171     -10577.038      4971           623707.37      0.007785979  
   4972000  -10623.32       45.341552     -10577.978      4972           623835.79      0.0077866232 
   4973000  -10618.585      43.948542     -10574.637      4973           623964.77      0.0077530954 
   4974000  -10620.207      43.196724     -10577.01       4974           624094.24      0.0077236574 
   4975000  -10622.04       46.199176     -10575.841      4975           624223.9       0.007712584  
   4976000  -10621.318      44.88363      -10576.434      4976           624355.09      0.0076226068 
   4977000  -10622.58       45.609056     -10576.971      4977           624486.37      0.007617299  
   4978000  -10621.937      46.064407     -10575.873      4978           624618.27      0.0075815062 
   4979000  -10620.066      42.524099     -10577.542      4979           624749.78      0.0076039022 
   4980000  -10620.144      46.805171     -10573.339      4980           624879.81      0.0076905582 
   4981000  -10621.387      44.026302     -10577.36       4981           625007.44      0.0078351603 
   4982000  -10621.171      48.605544     -10572.565      4982           625135.31      0.0078205673 
   4983000  -10621.626      44.406841     -10577.219      4983           625264.65      0.0077314955 
   4984000  -10620.01       45.764804     -10574.245      4984           625395.49      0.0076431217 
   4985000  -10623.341      45.427603     -10577.913      4985           625526.29      0.0076449351 
   4986000  -10621.833      45.63006      -10576.203      4986           625656.89      0.0076570368 
   4987000  -10623.228      45.017371     -10578.211      4987           625787.58      0.0076517597 
   4988000  -10620.679      46.020402     -10574.659      4988           625920.07      0.0075478368 
   4989000  -10622.246      43.450196     -10578.795      4989           626052.55      0.0075484295 
   4990000  -10621.196      45.124646     -10576.071      4990           626184.73      0.0075650283 
   4991000  -10619.959      42.78651      -10577.172      4991           626318.01      0.0075032214 
   4992000  -10619.738      46.356954     -10573.381      4992           626450.18      0.0075658337 
   4993000  -10620.466      44.121026     -10576.345      4993           626581.06      0.00764087   
   4994000  -10620.486      43.757438     -10576.728      4994           626711.88      0.0076438726 
   4995000  -10620.195      45.670929     -10574.524      4995           626841.9       0.0076913581 
   4996000  -10619.095      43.75635      -10575.339      4996           626973.87      0.0075776126 
   4997000  -10622.693      44.231054     -10578.462      4997           627105.11      0.0076195804 
   4998000  -10621.756      43.942255     -10577.813      4998           627236.05      0.0076367839 
   4999000  -10619.827      45.746778     -10574.08       4999           627366.3       0.0076776879 
   5000000  -10622.339      44.9174       -10577.422      5000           627496.99      0.0076514516 
Loop time of 627497 on 16 procs for 5000000 steps with 1152 atoms

Performance: 0.688 ns/day, 34.861 hours/ns, 7.968 timesteps/s, 9.179 katom-step/s
99.2% CPU use with 16 MPI tasks x 1 OpenMP threads

MPI task timing breakdown:
Section |  min time  |  avg time  |  max time  |%varavg| %total
---------------------------------------------------------------
Pair    | 1.5647e+05 | 1.6587e+05 | 1.7188e+05 |1215.6 | 26.43
Neigh   | 1773.4     | 1870.3     | 1962       | 173.9 |  0.30
Comm    | 20119      | 25328      | 32071      |2082.5 |  4.04
Output  | 0.93635    | 1.0128     | 2.07       |  27.1 |  0.00
Modify  | 4.3048e+05 | 4.3438e+05 | 4.3806e+05 | 413.4 | 69.22
Other   |            | 47.27      |            |       |  0.01

Nlocal:             72 ave          87 max          60 min
Histogram: 1 1 2 2 6 1 1 0 0 2
Nghost:        867.062 ave         973 max         779 min
Histogram: 2 1 1 3 5 0 0 0 2 2
Neighs:              0 ave           0 max           0 min
Histogram: 16 0 0 0 0 0 0 0 0 0
FullNghs:      6468.75 ave        8666 max        4454 min
Histogram: 1 1 3 1 2 2 4 0 0 2

Total # of neighbors = 103500
Ave neighs/atom = 89.84375
Neighbor list builds = 10000000
Dangerous builds = 0

unfix temp

min_style cg
fix 0 all box/relax aniso 0 vmax 0.001
minimize 0 0 100000 100000
Per MPI rank memory allocation (min/avg/max) = 5.543 | 5.543 | 5.543 Mbytes
   Step         PotEng         KinEng         TotEng          Time           CPU           T/CPU     
   5000000  -10622.339      44.9174       -10577.422      5000           0              0            
   5001000  -10666.793      44.9174       -10621.875      5001           65.424099      0.015284887  
   5002000  -10666.808      44.9174       -10621.89       5002           147.12727      0.012239427  
   5003000  -10666.808      44.9174       -10621.891      5003           228.62278      0.012270614  
   5004000  -10666.809      44.9174       -10621.892      5004           310.20681      0.012257301  
   5005000  -10666.809      44.9174       -10621.892      5005           391.7547       0.012262733  
   5006000  -10666.81       44.9174       -10621.892      5006           473.33578      0.012257744  
   5007000  -10666.81       44.9174       -10621.892      5007           554.91194      0.012258483  
   5008000  -10666.81       44.9174       -10621.893      5008           636.43103      0.012267066  
   5009000  -10666.81       44.9174       -10621.893      5009           718.31948      0.012211734  
   5010000  -10666.81       44.9174       -10621.893      5010           800.02118      0.012239648  
   5011000  -10666.81       44.9174       -10621.893      5011           881.65807      0.012249364  
   5012000  -10666.81       44.9174       -10621.893      5012           963.39972      0.012233666  
   5013000  -10666.81       44.9174       -10621.893      5013           1044.9542      0.012261739  
   5014000  -10666.81       44.9174       -10621.893      5014           1126.3786      0.012281334  
   5015000  -10666.81       44.9174       -10621.893      5015           1207.9575      0.012258073  
   5016000  -10666.81       44.9174       -10621.893      5016           1289.0636      0.012329523  
   5017000  -10666.81       44.9174       -10621.893      5017           1368.8444      0.012534352  
   5018000  -10666.81       44.9174       -10621.893      5018           1447.8623      0.012655355  
   5019000  -10666.81       44.9174       -10621.893      5019           1527.1883      0.012606203  
   5020000  -10666.81       44.9174       -10621.893      5020           1606.534       0.012603079  
   5021000  -10666.81       44.9174       -10621.893      5021           1685.918       0.012597001  
   5022000  -10666.81       44.9174       -10621.893      5022           1765.4045      0.012580751  
   5023000  -10666.81       44.9174       -10621.893      5023           1844.9445      0.012572292  
   5024000  -10666.81       44.9174       -10621.893      5024           1925.1851      0.012462515  
   5025000  -10666.81       44.9174       -10621.893      5025           2006.4975      0.012298257  
   5026000  -10666.81       44.9174       -10621.893      5026           2087.7466      0.012307818  
   5027000  -10666.81       44.9174       -10621.893      5027           2169.0403      0.01230108   
   5028000  -10666.81       44.9174       -10621.893      5028           2250.3843      0.012293471  
   5029000  -10666.81       44.9174       -10621.893      5029           2331.7489      0.01229036   
   5030000  -10666.81       44.9174       -10621.893      5030           2413.0389      0.012301632  
   5031000  -10666.81       44.9174       -10621.893      5031           2494.3937      0.012291836  
   5032000  -10666.81       44.9174       -10621.893      5032           2575.9312      0.012264289  
   5033000  -10666.81       44.9174       -10621.893      5033           2656.9435      0.012343812  
   5034000  -10666.81       44.9174       -10621.893      5034           2737.8718      0.012356616  
   5035000  -10666.81       44.9174       -10621.893      5035           2818.6518      0.012379301  
   5036000  -10666.81       44.9174       -10621.893      5036           2899.51        0.012367337  
   5037000  -10666.81       44.9174       -10621.893      5037           2980.397       0.012362919  
   5038000  -10666.81       44.9174       -10621.893      5038           3061.2675      0.012365456  
   5039000  -10666.81       44.9174       -10621.893      5039           3142.229       0.012351548  
   5040000  -10666.81       44.9174       -10621.893      5040           3223.4519      0.012311802  
   5041000  -10666.81       44.9174       -10621.893      5041           3305.3202      0.012214728  
   5042000  -10666.81       44.9174       -10621.893      5042           3387.1344      0.012222821  
   5043000  -10666.81       44.9174       -10621.893      5043           3468.9903      0.01221659   
   5044000  -10666.81       44.9174       -10621.893      5044           3551.1722      0.01216813   
   5045000  -10666.81       44.9174       -10621.893      5045           3633.3996      0.012161396  
   5046000  -10666.81       44.9174       -10621.893      5046           3715.9857      0.012108581  
   5047000  -10666.81       44.9174       -10621.893      5047           3798.4096      0.01213239   
   5048000  -10666.81       44.9174       -10621.893      5048           3880.6868      0.012154038  
   5049000  -10666.81       44.9174       -10621.893      5049           3962.9655      0.012153816  
   5050000  -10666.81       44.9174       -10621.893      5050           4045.2234      0.012156888  
   5050198  -10666.81       44.9174       -10621.893      5050.198       4061.5245      0.012146448  
Loop time of 4061.52 on 16 procs for 50198 steps with 1152 atoms

99.3% CPU use with 16 MPI tasks x 1 OpenMP threads

Minimization stats:
  Stopping criterion = max force evaluations
  Energy initial, next-to-last, final = 
     -10622.3394807293  -10666.8099408097  -10666.8099408097
  Force two-norm initial, final = 66.221833 2.1925133e-11
  Force max component initial, final = 44.682513 1.2955122e-11
  Final line search alpha, max atom move = 1 1.2955122e-11
  Iterations, force evaluations = 50198 100000

MPI task timing breakdown:
Section |  min time  |  avg time  |  max time  |%varavg| %total
---------------------------------------------------------------
Pair    | 2750.7     | 3219.6     | 3976.9     | 655.3 | 79.27
Neigh   | 0.00025596 | 0.00032624 | 0.00040192 |   0.0 |  0.00
Comm    | 12.217     | 589.46     | 1124.3     |1613.4 | 14.51
Output  | 0.0082164  | 0.0090366  | 0.020595   |   3.1 |  0.00
Modify  | 0          | 0          | 0          |   0.0 |  0.00
Other   |            | 252.5      |            |       |  6.22

Nlocal:             72 ave          87 max          60 min
Histogram: 1 1 2 2 6 1 1 0 0 2
Nghost:        866.438 ave         974 max         777 min
Histogram: 2 1 1 4 4 0 0 0 2 2
Neighs:              0 ave           0 max           0 min
Histogram: 16 0 0 0 0 0 0 0 0 0
FullNghs:      6474.62 ave        8668 max        4455 min
Histogram: 1 1 3 1 2 1 5 0 0 2

Total # of neighbors = 103594
Ave neighs/atom = 89.925347
Neighbor list builds = 1
Dangerous builds = 0

write_data data.CSRO
System init for write_data ...

print "all done"
all done
Total wall time: 175:25:58
