LAMMPS data file via write_data, version 22 Dec 2022, timestep = 1050373

1152 atoms
5 atom types

0.01705729238043177 15.38974329177632 xlo xhi
-0.006617793618564366 16.3479975477873 ylo yhi
0.05460343062456642 71.10636028628745 zlo zhi

Masses

1 180.948
2 92.9064
3 50.9415
4 95.94
5 183.84

Atoms # atomic

991 3 2.389921343957572 2.7674001585928183 2.4294517776864066 -4 2 1
375 3 1.207952308636478 0.9965840677987982 0.3566938703214092 -3 2 1
397 3 15.336587818508299 1.854465394940004 2.548477259129254 -4 2 1
941 3 1.1950828190561205 3.6585981326897974 0.3117613264038965 -3 2 1
448 3 3.6474390363020026 1.8461500299230578 0.2704997735308361 -4 2 1
446 3 2.39414224610613 0.1311135126765791 2.4530790333657317 -4 2 1
432 2 5.030021752546656 0.9078844872891614 2.4836807712393827 -4 2 1
994 2 5.019163911134477 3.7548962477077024 2.5776435118904195 -4 2 1
969 2 6.26246288027466 2.752481986337923 0.2463459315154517 -4 2 1
439 3 6.240438898631714 0.04575423534296131 0.31945998583032026 -4 2 1
440 2 7.655391086753798 1.8722469880617771 2.6317145676705005 -4 2 1
946 2 10.370783854380072 2.7485057094077163 2.5928050401790417 -4 2 1
973 2 9.003208146674128 3.7323300149099357 0.3585430978326533 -4 2 1
415 2 8.968265972930974 1.003459511417465 0.38383531360699685 -4 2 1
416 3 10.326240626802603 0.08567027243287427 2.645319952051431 -4 2 1
422 3 11.647733698054354 1.8693205946517932 0.3836765891997366 -4 2 1
389 3 12.85969632117172 0.9652659544477914 2.5831741244595126 -4 2 1
937 2 14.126621333021259 2.7932058191517175 0.40136846822232736 -4 2 1
949 3 12.90409414766004 3.743696518476428 2.570120357046503 -4 2 1
396 3 14.109188550611174 0.07081841928312348 0.3661132757559635 -4 2 1
1014 3 2.4712776687164504 5.541374926195403 2.531701748117064 -4 2 1
1018 2 3.7037612664745696 7.419840904952417 0.33498287615945194 -4 2 1
942 2 1.1242085759477278 6.431432188982207 0.30709169979085504 -3 2 1
993 2 3.6406543630458175 4.567728641484856 0.2769108420691188 -4 2 1
995 3 5.02291058763041 6.4929473420245 2.5759732278671894 -4 2 1
1000 2 6.307034236384285 5.600518256139771 0.37749980902788816 -4 2 1
1002 3 7.633548561767005 7.385511036012761 2.602314239929106 -4 2 1
970 3 7.656886476306263 4.70146297956227 2.5721116233803945 -4 2 1
974 2 8.939542664201158 6.558137106218953 0.36306108929325104 -4 2 1
975 2 10.290179318439199 5.602847190670182 2.573433673914023 -4 2 1
938 3 15.27199980898682 4.659019289902999 2.500233065906637 -4 2 1
955 3 14.033215318279161 5.588571128631007 0.37403049397238214 -4 2 1
957 3 15.251279597418282 7.336334839000796 2.5107896889161894 -4 2 1
982 3 11.694127640051098 7.351326446298844 0.37943098334846315 -4 2 1
948 3 11.664408308447506 4.6858986041682 0.4103201693170097 -4 2 1
950 3 12.908949104387291 6.508368880645873 2.5290903054030958 -4 2 1
514 3 2.518376112115645 0.12388882259313853 7.044625452128211 -4 2 1
465 3 1.1643290535362982 0.9198076710594105 4.6253959242510145 -3 2 1
1067 3 2.5354711662030343 2.7634143501036865 6.9654221747280625 -4 2 1
1032 2 1.2050669844841788 3.683588310012353 4.6398624434644455 -3 2 1
516 2 3.7309453240963 1.9153851901798222 4.726588896753546 -4 2 1
481 2 15.375438470222969 1.8691863138750113 6.904151971104545 -4 2 1
1051 3 6.40350364059492 2.777362800790913 4.745701246421597 -4 2 1
509 2 5.102869058868909 0.9460811833455023 7.002789215961034 -4 2 1
1071 2 5.107052450617483 3.7130288046161395 6.909765905502354 -4 2 1
512 3 6.4980919638106185 0.06911471602884194 4.75185192044857 -4 2 1
513 2 7.792727129398438 1.8574013510647194 6.9747525548131515 -4 2 1
495 3 9.027188867694903 0.8873233729003208 4.787620848604916 -4 2 1
1034 3 10.274169150246044 2.73032223309483 7.031871958759791 -4 2 1
1056 2 8.946305354726988 3.738632169066625 4.822009506602228 -4 2 1
496 3 10.21954990173273 0.04715612758886761 6.986336832283666 -4 2 1
498 3 11.543811667310633 1.8275524887362071 4.757457664854352 -4 2 1
1028 3 14.040039343017032 2.7625551640937123 4.619844259017634 -4 2 1
477 2 12.711086142389854 0.9611348476896004 6.969410407434419 -4 2 1
1038 2 12.73861311525989 3.7349112680584255 7.006225241296927 -4 2 1
480 3 14.053235310961899 0.09879693543354388 4.618461330332793 -4 2 1
1083 3 2.5298013835606312 5.573302694553511 6.872961502689105 -4 2 1
1033 2 1.2003214930345785 6.471047590829892 4.696361173229467 -3 2 1
1088 3 3.78936849805115 7.381650669773274 4.681748165101288 -4 2 1
1070 3 3.7264780597996383 4.692599892363464 4.704430271750598 -4 2 1
1076 2 6.4068470354976 5.590834227905443 4.69157704984198 -4 2 1
1072 2 5.046511672629733 6.540861795767138 6.8878823218246845 -4 2 1
1078 2 7.728493001739456 7.38409078738469 6.952714202775736 -4 2 1
1052 3 7.732033162566292 4.647690056349465 6.9836209304664 -4 2 1
1058 2 10.25567208838835 5.615399624578276 7.069017367079281 -4 2 1
1057 3 8.966578440493912 6.588841868541594 4.742877512005249 -4 2 1
1039 3 12.805974166381352 6.592324360532033 7.042271436858238 -4 2 1
1044 3 14.052286732888021 5.604176976284247 4.681375857426947 -4 2 1
1037 2 11.603495269620739 4.643310073898177 4.766363188294714 -4 2 1
1046 3 15.218563201823677 7.472176545012153 6.97069886058774 -4 2 1
1063 2 11.579576003855758 7.46889972038435 4.8424132329620555 -4 2 1
1029 2 15.328351947082608 4.7088784562972785 6.9213551803236175 -4 2 1
1066 2 2.6055818307056833 2.7635041916914247 11.420335960960934 -4 2 1
463 3 1.3368457878045823 0.9312058381534644 9.169196771653779 -3 2 1
1030 2 1.2806167445535395 3.6827588667185984 9.18624199766058 -3 2 1
479 2 15.324184525728551 1.804500394952167 11.456012394086835 -4 2 1
515 3 3.8243669805422558 1.781176912489474 9.219111431491692 -4 2 1
1050 2 6.457906663196701 2.7470785780915983 9.291663786640566 -4 2 1
505 3 5.260608927884113 0.8783419069297527 11.545165662406202 -4 2 1
1069 2 5.240494259304521 3.66008406585821 11.529907941444968 -4 2 1
510 2 6.5016605377979815 0.03776876398502628 9.333388010484851 -4 2 1
1053 2 9.057963204196856 3.6830455219846567 9.260183843194046 -4 2 1
511 3 7.7944964821646305 1.7778017242009472 11.534201429584359 -4 2 1
1101 3 10.303841329641328 2.683620575799151 11.412879309786787 -4 2 1
492 3 9.116947698367472 0.89411846770752 9.275558901070111 -4 2 1
493 3 10.295090441050691 0.10965067808498412 11.409036983975836 -4 2 1
497 3 11.46949619185505 1.8296653315681453 9.298278121011178 -4 2 1
543 3 12.788286542353376 0.8804130331415704 11.387901479869825 -4 2 1
1036 3 12.806116432380351 3.675471328707285 11.4428482108343 -4 2 1
1027 2 14.001214216294665 2.74545775452597 9.266978639016049 -4 2 1
1031 2 1.2253683160984472 6.508656196737055 9.202197800225223 -3 2 1
1082 3 2.4718315176905183 5.571725966224793 11.485712677662535 -4 2 1
1096 3 15.362739411576062 4.668178291003488 11.451746803777855 -4 2 1
1085 2 3.835219314905512 7.476138328310781 9.166415942072248 -4 2 1
1068 2 3.828052844106429 4.631754383439253 9.194687824320843 -4 2 1
1073 2 6.498138078939597 5.589738946895129 9.229243332968945 -4 2 1
1137 2 5.16148878500917 6.529210881707071 11.503189572814193 -4 2 1
1119 3 7.707290401365621 4.622953812238973 11.504599885336516 -4 2 1
1054 3 9.016889772027 6.506991527527514 9.273068013267128 -4 2 1
1075 3 7.717170499363238 7.376579721856385 11.415710880841075 -4 2 1
1055 2 10.28657820553881 5.553551801718758 11.401791050136072 -4 2 1
1035 3 11.526690014358476 4.626526608043475 9.297925116132399 -4 2 1
1060 3 11.538545530457712 7.419178743640103 9.224890027978203 -4 2 1
1042 3 15.314555186316293 7.37025436918523 11.506789405271384 -4 2 1
1107 3 12.823472255974622 6.479997390879095 11.464517905526314 -4 2 1
1040 2 13.988124844227876 5.6183032138427285 9.280436957477914 -4 2 1
530 3 1.1990010094462218 0.893461700271478 13.65604460317033 -3 2 1
1130 3 2.633582210829013 2.8320527408814455 15.904096891433658 -4 2 1
1097 2 1.259250923718953 3.6755457690138 13.65338908404292 -3 2 1
573 2 2.565520227861211 0.07775585510958413 15.81470038234483 -4 2 1
571 3 6.451675458166421 0.08445884566853443 13.6281054813956 -4 2 1
576 2 3.9386484205843737 1.820813115762645 13.737099704258583 -4 2 1
568 3 5.171314582469491 1.0276043775868802 15.941633396820086 -4 2 1
1115 3 6.484922722265504 2.7176371613469197 13.736638359549495 -4 2 1
1133 3 5.122394980388763 3.671037871630646 15.956929646898601 -4 2 1
557 3 8.971551060846023 0.9242583913106189 13.624989994276541 -4 2 1
572 3 7.667459410719352 1.9031358301241579 15.89134023398864 -4 2 1
558 3 10.21427257088732 0.18921545583016064 15.773380242149495 -4 2 1
1099 3 10.254420040292167 2.7905299365468106 15.947535828266483 -4 2 1
1120 2 8.948760944205747 3.611953460204032 13.655284217382157 -4 2 1
544 3 14.105217777339064 0.041848093868331014 13.603031927753577 -4 2 1
560 2 11.5716797997502 1.82024211784001 13.620250068550254 -4 2 1
545 3 15.282046037953771 1.842374577865817 15.740133502659567 -4 2 1
1092 3 14.087446092330477 2.7155097990040686 13.657602964860935 -4 2 1
541 3 12.788486463740766 1.0747826677494752 15.794215038490977 -4 2 1
1103 3 12.763956071847575 3.661545255925443 15.90298605926373 -4 2 1
1145 3 2.618071041733582 5.488443129437441 15.835495362216143 -4 2 1
1098 3 1.2628420560788474 6.490315417263308 13.612875774762852 -3 2 1
1150 3 3.887991938010422 7.360112482835758 13.677188821688773 -4 2 1
1132 2 3.8831170068573013 4.674305415684409 13.730949987140622 -4 2 1
1134 3 5.15129524248638 6.419419854846555 15.81421980049386 -4 2 1
1138 3 6.417974254085233 5.561291029427983 13.698304967808426 -4 2 1
1104 3 12.751329755400937 6.4594655655290065 15.886667716926045 -4 2 1
1140 2 7.677550713286943 7.373992779007065 15.901370031331773 -4 2 1
1116 2 7.667825619115032 4.569691654248142 15.928973553746054 -4 2 1
1121 2 8.970455825952275 6.445627837659859 13.65847868382511 -4 2 1
1122 3 10.317056796420902 5.530174893762289 15.953564212972799 -4 2 1
1108 2 14.09724978338092 5.557699309479314 13.604310860575863 -4 2 1
1102 2 11.560747454155187 4.605457312151611 13.700631349939384 -4 2 1
1110 3 15.247477205566957 7.40348294229407 15.785701948526933 -4 2 1
1093 2 15.3004820869449 4.609397735683233 15.845395155140388 -4 2 1
1127 3 11.587368429950477 7.34787530715418 13.696068945583256 -4 2 1
623 3 2.6018973134733345 2.813238010859736 20.222355064282176 -4 2 0
527 2 1.2554136530332398 1.0421242315962598 18.04228030305432 -3 2 1
71 3 2.5992603864450943 0.10378294189998953 20.189512370092082 -4 2 0
1094 2 1.2661764392884975 3.7080789368278233 18.04904643032851 -3 2 1
65 3 5.042855196590346 1.0797236604500384 20.172020845014696 -4 2 0
629 3 5.119731963188191 3.6632163683226855 20.160935690670268 -4 2 0
68 3 7.602400214486812 2.0453656195675847 20.11368518843527 -4 2 0
1114 3 6.3670796684030995 2.810696665273799 18.056589106838068 -4 2 1
574 3 3.879211106264763 1.9474362584642095 18.06381738097956 -4 2 1
569 3 6.284011508285039 0.24724446255765836 17.998811753109255 -4 2 1
559 3 11.460373402662363 2.037871007127551 17.98938766793694 -4 2 1
587 3 10.21013842217277 2.8984488575398304 20.112667420600577 -4 2 0
52 3 11.466307820158033 2.0611372746262027 22.222644889923156 -4 2 0
51 3 10.202870944462102 0.2903879692143189 20.128329272225248 -4 2 0
1117 3 8.993406199079436 3.7145760025355883 18.066395311598153 -4 2 1
554 3 8.903338670938002 1.133698675611133 17.993004400827886 -4 2 1
34 3 15.232864822667464 2.0198638473169996 20.178707442943182 -4 2 0
31 3 12.668022331589329 1.1955009399311647 20.146527022111947 -4 2 0
593 3 12.742128129941738 3.7696024858990063 20.128170473053373 -4 2 0
542 2 14.017216035442015 0.177870779119726 17.984444818354774 -4 2 1
1091 3 13.94808718310866 2.883037732121961 18.005202868545663 -4 2 1
578 3 13.97704958793974 2.929274973212222 22.221909297936957 -4 2 0
643 2 2.5732774591860723 5.4873263640796575 20.261460938718002 -4 2 0
1095 2 1.2253465019097056 6.443137639476134 17.96271379960555 -3 2 1
1135 3 6.443919307100175 5.462335097531919 18.038520231141444 -4 2 1
630 2 5.215616050550787 6.442508288161106 20.168825062003833 -4 2 0
1147 2 3.9498736563918384 7.325243000677844 17.957076132869453 -4 2 1
1131 3 3.9374307810595828 4.54433587156887 17.993813104431865 -4 2 1
636 3 7.77714368363178 7.288189346704827 20.13079293774855 -4 2 0
608 3 7.737185039540748 4.59039013949215 20.118538258797045 -4 2 0
615 3 10.230873235539619 5.511376160518401 20.134257952813027 -4 2 0
1118 3 9.029470128032363 6.394508491351914 18.060223448026278 -4 2 1
616 3 10.167551586139036 8.121757887451052 20.134077967029473 -4 2 0
617 3 11.441047342784147 7.2328779267550685 22.202986095819853 -4 2 0
588 3 11.45019478460597 4.637734515439126 22.254265487324233 -4 2 0
1124 3 11.492231468110832 7.3004446822053 17.976618143737277 -4 2 1
1100 3 11.507902315804063 4.629777605604323 17.99236903103035 -4 2 1
600 2 15.281389123743427 7.343409037780563 20.227112644754875 -4 2 0
582 3 15.256238343099616 4.589309435615637 20.21461494666282 -4 2 0
594 3 12.707329986752436 6.348498004041363 20.130630234362098 -4 2 0
595 3 14.024746407305903 5.5127596657693605 22.217863057090405 -4 2 0
1105 3 13.93920141612646 5.524695852112797 18.01258887966235 -4 2 1
583 3 1.2723092038658008 3.7659231473918053 22.283286301122153 -3 2 0
72 3 3.8177351586345676 1.9861493610856527 22.26955128919932 -4 2 0
16 2 1.311803221156823 1.0339081711232547 22.27630538878261 -3 2 0
69 3 2.5589064980100713 0.04919724604448892 24.458139094049486 -4 2 0
621 3 2.592702771392914 2.8668354538442986 24.422619503476454 -4 2 0
12 2 1.2659169368825114 0.9938518775458763 26.64688753126385 -3 2 0
70 3 3.8913994331847492 1.9214578628243162 26.683569219081793 -4 2 0
66 3 6.2724603820363765 0.17574463770471768 22.294288847072917 -4 2 0
604 3 6.3267929658079565 2.8194758716375223 22.279892024375766 -4 2 0
62 2 5.062161863974455 1.0513555274469404 24.460948193880906 -4 2 0
625 3 5.072116086971912 3.723731417879246 24.44213025556293 -4 2 0
67 3 7.600428411092122 2.041440982861041 24.41861264323306 -4 2 0
603 3 6.340063650418659 2.8901617962302844 26.596379637814287 -4 2 0
63 3 6.313406641742773 0.11888930397209171 26.65821103290627 -4 2 0
48 2 8.905534083978505 1.1497288675754043 22.287288748958815 -4 2 0
609 3 8.950658684845916 3.8054161395470807 22.266153860143095 -4 2 0
44 2 8.88370840360049 1.0992784657927137 26.5753798764262 -4 2 0
585 3 10.14867241048927 2.9574169396173806 24.366853359975565 -4 2 0
49 3 10.203908675759413 0.1566154799594026 24.413828342563036 -4 2 0
606 3 8.823131802760404 3.8296245802554676 26.60735924369635 -4 2 0
32 2 14.029572655642882 0.12275080159888915 22.266850494624624 -4 2 0
33 2 15.327072714141643 1.9438008034716632 24.469623383113465 -4 2 0
28 2 12.71626442951825 1.0733021262240885 24.444086762856163 -4 2 0
589 3 12.696405175834924 3.778081949325982 24.363286654384524 -4 2 0
29 3 14.057877487514613 0.10122301176992199 26.686706522423904 -4 2 0
597 3 0.027738181288986988 7.415566198578805 24.409731754943905 -3 2 0
581 3 1.330164951078773 6.494447407893024 26.610456633722574 -3 2 0
645 3 3.821855560036261 7.425691737902135 22.388503590314286 -4 2 0
624 3 3.793261354815187 4.582656365696755 22.394020371641535 -4 2 0
639 3 2.5178703865078003 5.601984721562513 24.433346222161937 -4 2 0
584 3 1.2862063940561168 6.497223042307095 22.411035293278957 -3 2 0
622 2 3.8511748235287673 4.641261409148523 26.67077748831802 -4 2 0
626 2 5.057497898225592 6.483970073019927 24.495652680074674 -4 2 0
633 3 7.631841226069118 7.339512671499172 24.43721321161983 -4 2 0
631 2 6.440239335393168 5.490893312820366 22.32549854783011 -4 2 0
605 3 7.650633634526927 4.624711096023574 24.487734422350577 -4 2 0
627 3 6.404323511371771 5.49313529542589 26.67844632898252 -4 2 0
610 3 8.965566182479517 6.417083103681322 22.27129729258609 -4 2 0
586 2 11.410743414391192 4.6747514888258515 26.655947718936293 -4 2 0
611 3 10.09470287372067 5.48127764578052 24.399871170694915 -4 2 0
607 3 8.871698573686741 6.374633481629061 26.625502906469027 -4 2 0
590 2 12.74372780080593 6.458693316634 24.392092939530617 -4 2 0
579 2 15.346370898833792 4.692084246930145 24.39120388947246 -4 2 0
612 2 10.175976664391287 8.158259872697608 24.437723596413136 -4 2 0
591 2 14.064062596735885 5.558739377923636 26.696813081611644 -4 2 0
695 3 2.56781345620963 2.8355860630463376 28.908633382569445 -4 2 0
143 2 2.5684647417118263 0.17947599284688406 28.85741757892865 -4 2 0
144 3 3.807232844139189 1.9144708349232256 31.04120107033316 -4 2 0
655 3 1.2712942197263863 3.646849620832878 30.965074904935683 -3 2 0
88 3 1.2434843780014508 1.0314533189573851 31.055664488628583 -3 2 0
580 2 1.257827418459061 3.7515018532955575 26.711646714814105 -3 2 0
137 3 5.1041192865034395 1.0541229037263569 28.7669742053125 -4 2 0
701 3 5.117041929033307 3.700614278890666 28.790824710715132 -4 2 0
140 2 7.6764805130627645 1.9565029555804172 28.817384189109493 -4 2 0
676 2 6.4104980330441395 2.812691532449309 31.100067464767058 -4 2 0
138 2 6.388842246642765 0.13026887730335737 31.02713426312085 -4 2 0
659 3 10.228369779843108 2.825312500441412 28.928205479668502 -4 2 0
124 3 11.454984937049971 1.8239752786477772 31.077923689454746 -4 2 0
123 3 10.220676721009486 0.12673680226721348 28.98404649495207 -4 2 0
120 3 9.07281719401849 1.0369443190217438 31.091901491510082 -4 2 0
681 3 9.020593497389463 3.6367322850936095 31.044052197353043 -4 2 0
50 2 11.487904774920805 1.9801157947087484 26.71405932618752 -4 2 0
104 3 13.98401426734903 0.0600443887374691 31.090615852555665 -4 2 0
106 3 15.302344790069082 1.9405935200390203 28.86461114287657 -4 2 0
103 3 12.756444555984014 0.9888632559911896 28.93400963025952 -4 2 0
665 3 12.782006934239538 3.6711291866764495 28.850942389489294 -4 2 0
650 2 14.017724170380513 2.7378590357140484 31.018840941552448 -4 2 0
577 3 14.026661161816811 2.794896382635679 26.766957425906313 -4 2 0
715 3 2.5520502285343256 5.566554476810006 28.80589550810748 -4 2 0
641 3 3.7595796918360973 7.372595914653971 26.711706914850392 -4 2 0
656 2 1.2540616966667677 6.423898711268642 31.01791456713804 -3 2 0
696 2 3.816130918042777 4.5726618793033795 31.017988571050235 -4 2 0
717 2 3.8102759931996864 7.432029754554409 31.0366000614596 -4 2 0
702 3 5.036071443249661 6.442688229439167 28.797863795708608 -4 2 0
708 2 7.636488535400457 7.3444383774839395 28.83748622791884 -4 2 0
680 3 7.664050477716244 4.626399458342602 28.751633014815322 -4 2 0
703 2 6.372923381435112 5.536069450163439 31.050105007141614 -4 2 0
687 3 10.17021926917057 5.521455305693597 28.81230902724149 -4 2 0
682 2 8.967243035201871 6.40694644869223 31.113233158555932 -4 2 0
689 2 11.508984918892965 7.383527458946195 31.0766611941618 -4 2 0
660 2 11.456496298096218 4.541137172223897 31.084003322555105 -4 2 0
613 3 11.487021890055917 7.339628675928793 26.748296056557777 -4 2 0
672 2 15.316036622523388 7.375378447450031 28.788675553379505 -4 2 0
654 3 15.360962812943656 4.546749651251776 28.869152178691095 -4 2 0
663 2 14.030930634887378 5.539672360934327 35.52502309295963 -4 2 0
667 2 14.015368801708982 5.550345760060654 31.026357690371896 -4 2 0
666 3 12.702706415527407 6.475273257471304 28.809497325271728 -4 2 0
693 2 2.6009821868813474 2.772352506205296 33.29295399627277 -4 2 0
141 3 2.526913908310436 0.05798439023192068 33.312044451702604 -4 2 0
142 3 3.827396855906958 1.9008578075178821 35.49979478298454 -4 2 0
652 3 1.2495438176054374 3.8220700198716333 35.5683017712669 -3 2 0
84 2 1.2929443281879487 1.0283591580881661 35.52523714971216 -3 2 0
134 3 5.036814585822737 1.0166929663182394 33.31045820782565 -4 2 0
697 3 5.112032233011141 3.7058951577225447 33.34185388768141 -4 2 0
675 2 6.392103561105279 2.853188132585739 35.497623249922576 -4 2 0
135 2 6.305678438510308 0.13616646445138605 35.4784103944946 -4 2 0
139 3 7.791814268218345 1.9132328763480722 33.31092504260786 -4 2 0
121 3 10.307990149497208 0.21395855735564775 33.271273417968025 -4 2 0
122 3 11.457230922539944 1.980726659712576 35.437641261930786 -4 2 0
657 3 10.267446260054824 2.7836061005066086 33.324320455635466 -4 2 0
678 3 9.014583767131992 3.6541045866350808 35.54450695874757 -4 2 0
116 3 9.004931553976624 1.1437284775523253 35.45274638729499 -4 2 0
105 2 15.299994440102534 1.8664188903085732 33.261210410874526 -4 2 0
100 3 12.67603097563776 1.006182405232681 33.243374128932345 -4 2 0
661 3 12.685546136333006 3.6635632038427257 33.391772367055744 -4 2 0
649 3 13.996849218879392 2.866492540119134 35.54035387975904 -4 2 0
101 2 13.993538265108945 0.1182065372841171 35.437661340973044 -4 2 0
713 3 3.783654568193308 7.326734394321444 35.56556937680454 -4 2 0
694 3 3.827747253153272 4.678441183472827 35.50194914190436 -4 2 0
711 2 2.5844500946641817 5.550362154815441 33.38922335774631 -4 2 0
699 3 6.330966101765885 5.5422717483538015 35.49467591541505 -4 2 0
677 2 7.720592701260165 4.60249301219223 33.33622978974506 -4 2 0
705 3 7.626444172723159 7.397284056346484 33.33770566757393 -4 2 0
698 3 5.1335543409287165 6.436852955430219 33.40768962426629 -4 2 0
658 3 11.470728674136028 4.556852597101452 35.4568025845078 -4 2 0
683 3 10.312268427319715 5.513251762199058 33.36740271869142 -4 2 0
685 3 11.53706400230979 7.395067477250202 35.397800082688235 -4 2 0
679 2 8.931822868571562 6.416818318791729 35.48888085752284 -4 2 0
651 2 15.313637757619484 4.599135796050086 33.324145645634765 -4 2 0
669 2 15.236704269452831 7.441879080074313 33.337177062295915 -4 2 0
662 3 12.668667061784323 6.473319096472543 33.3487983394059 -4 2 0
780 2 2.491210761257405 2.8970271937167684 37.715068132774896 -4 2 0
233 3 2.6028302963418324 0.16093023719185026 37.729337648225425 -4 2 0
163 2 1.2572227978831294 1.10160350962539 39.92245666846839 -3 2 0
728 3 1.2846813042793 3.899261185130764 39.92557878666114 -3 2 0
234 3 3.8879427925861503 1.9328516158190672 39.94131483710352 -4 2 0
226 3 5.021931027938855 1.0642374966341865 37.79063253649688 -4 2 0
229 3 7.651226449783878 2.0423646184785387 37.76366935225714 -4 2 0
755 3 6.357527556196934 2.794093324320527 39.968359995326196 -4 2 0
788 2 5.08937489873253 3.7393783680430692 37.76896588457126 -4 2 0
207 2 10.209979798158946 0.18992229169175687 37.69266953834378 -4 2 0
735 3 10.154496589858722 2.88532188537332 37.68479482992499 -4 2 0
204 2 8.84018008388227 1.1403685804279715 40.0002842934445 -4 2 0
762 3 8.889581455256007 3.789715967922619 39.990548169724896 -4 2 0
208 2 11.482053746892602 2.039218934538121 40.01522754547655 -4 2 0
186 3 15.315099296813685 2.0717058698588744 37.692571675698034 -4 2 0
183 2 12.786247425851075 1.1504275518731983 37.73155412991064 -4 2 0
743 3 12.759379444431014 3.7823433396548203 37.68002689333718 -4 2 0
723 2 14.084794480956882 2.9627358697341744 39.949258885923555 -4 2 0
805 3 2.4580292291196457 5.623717592188363 37.72857359048438 -4 2 0
653 3 1.2847392702298386 6.471644402996792 35.64172193226048 -3 2 0
729 3 1.236560163205995 6.449431076765713 39.948733804866436 -3 2 0
781 3 3.7218758618834866 4.674771592028239 39.96949433934471 -4 2 0
807 2 3.766470521253144 7.366617770559359 40.00415896136628 -4 2 0
790 2 6.4188024723405235 5.5085041114621465 39.998031160177014 -4 2 0
789 2 5.087897736291967 6.489043441921601 37.69550617033962 -4 2 0
795 3 7.6947033457827185 7.352104714485821 37.78853275386579 -4 2 0
761 3 7.68629149102645 4.5943986831124475 37.7521916539917 -4 2 0
769 2 10.1930724747221 5.4710536760040815 37.76588915526798 -4 2 0
736 3 11.52979103816993 4.71416434966744 39.983853426543476 -4 2 0
763 3 8.982382128923424 6.452598219022114 39.949496591582175 -4 2 0
771 3 11.473899516944098 7.286578765040131 40.01278685181486 -4 2 0
745 3 14.070656133222526 5.587289148559716 39.95507433484364 -4 2 0
750 3 0.06179088427595936 7.281425708255655 37.71114950622311 -3 2 0
727 3 15.384572657860428 4.691725818824544 37.752879569507726 -4 2 0
744 2 12.800893820674867 6.459544025107679 37.73390327432564 -4 2 0
776 2 2.5518206438786066 2.9408221324749793 42.167963890953416 -4 2 0
231 2 2.579097426697445 0.14019872759317925 42.209063427780556 -4 2 0
232 2 3.87180903849731 2.0082715712586876 44.429864198042566 -4 2 0
227 3 6.277341033999221 0.21050322860205295 40.02846760084951 -4 2 0
222 3 5.187068141667509 0.9955664049975174 42.13900570232883 -4 2 0
782 2 5.144521457013868 3.781350343850792 42.19473953651153 -4 2 0
228 3 7.5797354966023525 1.962517163879987 42.1914894596144 -4 2 0
753 3 6.396943424095762 2.8378650179866467 44.39432895732526 -4 2 0
223 3 6.413903047134854 0.1254920848924906 44.393507267628806 -4 2 0
757 2 8.93014027678207 3.7425325972851016 44.372832270625935 -4 2 0
199 2 8.869621624767651 1.0081489772502688 44.45406957010136 -4 2 0
205 2 10.256125652432038 0.14200685198614724 42.22436166445873 -4 2 0
731 3 10.228344341376781 2.893722825593205 42.17492562640179 -4 2 0
206 2 11.590761512445592 1.9416264215842205 44.398391352923056 -4 2 0
185 2 15.318332933107023 1.9558271005877204 42.28076523450115 -4 2 0
184 3 14.008910954091943 0.09845244180039735 40.06476223891004 -4 2 0
737 3 12.758822236638666 3.8309146732293113 42.25571093860887 -4 2 0
179 3 12.82921577629765 1.0620270189964163 42.20346797072359 -4 2 0
180 2 14.14182217889291 0.08373277612269407 44.44276802117132 -4 2 0
726 2 1.3090209661443115 6.387439551393047 44.45050193653235 -3 2 0
800 3 2.6058998382007266 5.625215071053229 42.18403698946492 -4 2 0
802 3 3.8750545545438975 7.25918237596832 44.4250180707675 -4 2 0
756 3 7.65398434193522 4.59719397225306 42.18083858101899 -4 2 0
783 3 5.045791278633291 6.485426679827402 42.2919575056467 -4 2 0
792 2 7.704266194333351 7.36842471055985 42.18265873350079 -4 2 0
784 3 6.299634853215829 5.532718906840863 44.41625839831415 -4 2 0
764 2 10.285841801329015 5.555097237639172 42.15312323950286 -4 2 0
766 3 11.54804912864214 7.385130416676327 44.42091159918236 -4 2 0
758 2 8.996604039382925 6.52063967439817 44.43409605049085 -4 2 0
747 3 0.022842008102596623 7.324874009098374 42.141104634356964 -3 2 0
724 2 15.34608314959774 4.747845822756022 42.20712986836977 -4 2 0
738 3 12.812453400626278 6.477489729349536 42.17690096745415 -4 2 0
740 2 14.047242658630728 8.157037053414605 44.410856768621116 -4 2 0
732 3 11.637528642893281 4.710645394181509 44.38589128896002 -4 2 0
739 3 14.023156431838022 5.530688633748949 44.431688838979646 -4 2 0
746 2 14.077058589423409 8.166056168221491 39.95498330048972 -4 2 0
777 3 3.8445671579769356 4.755006456648718 44.45978007448772 -4 2 0
775 3 2.537382450188579 2.948653568142285 46.69967645893246 -4 2 0
230 2 2.5844195317241296 0.16429735650727573 46.665698796953414 -4 2 0
181 3 0.09764067628012077 2.004467561632804 46.6421702054274 -3 2 0
725 3 1.3177241253124155 3.73887340087793 44.51791251905392 -3 2 0
159 3 1.286108543801159 1.0995565127978966 44.51039761831219 -3 2 0
216 2 5.2624358621816345 0.9987452063381784 46.69496558722944 -4 2 0
778 2 5.085414819942273 3.8024848140633996 46.702077487751666 -4 2 0
224 3 7.663400743171015 1.8799324801744781 46.76677337423179 -4 2 0
730 2 10.220570188666384 2.7859324078000722 46.77011393785145 -4 2 0
200 2 10.210818680287717 0.05812787356400571 46.767686792279264 -4 2 0
721 3 14.153976138468627 2.927348999058967 44.475136547198694 -4 2 0
173 2 12.879321169934098 0.9829639439209221 46.78626663157233 -4 2 0
733 2 12.8615832723452 3.7794258352084653 46.67736843705492 -4 2 0
798 3 2.6329783012050783 5.5216417652582965 46.755794632009966 -4 2 0
722 2 0.08121323255220225 4.682413988126095 46.739543179561494 -3 2 0
842 2 11.620503996251225 7.382257190881782 48.99970060067986 -4 2 0
779 3 5.048419837045831 6.4540067113507495 46.71891564382738 -4 2 0
754 2 7.617990385245433 4.614902732721736 46.72506635214273 -4 2 0
786 2 7.660308048299286 7.360830190164626 46.720695700098 -4 2 0
759 2 10.327743687070225 5.611893418530041 46.69185512599136 -4 2 0
741 3 15.357995141185102 7.2967011829814705 46.80426391305297 -4 2 0
734 3 12.904220162831088 6.455975965345144 46.68446959598726 -4 2 0
286 2 2.6257818559000246 0.17203344868909265 51.21877970880737 -4 2 0
247 2 1.25019453843457 1.1000397575323229 48.948471892838626 -3 2 0
845 2 2.596674564680225 2.937159393167835 51.201260124074 -4 2 0
816 3 1.3584497350467066 3.8736961958590403 48.98045914042489 -3 2 0
288 2 3.9421907308176034 2.0185814169386838 48.96875436780452 -4 2 0
284 3 6.516499230062808 0.13568780359611748 49.008730299057426 -4 2 0
832 3 6.424656284536956 2.8162256208159206 49.059678534015724 -4 2 0
282 3 5.249972367998422 1.061706303937952 51.218514027121614 -4 2 0
848 3 5.203103947985012 3.763353538077693 51.13911639904642 -4 2 0
285 3 7.6715071526491405 1.8523421272354745 51.21622208395666 -4 2 0
272 3 10.138215534159981 0.17031666753022917 51.22529569668537 -4 2 0
271 3 8.8975729145432 0.9945648806531834 49.08225271416415 -4 2 0
818 3 10.17624278939813 2.781775773602911 51.23232073622212 -4 2 0
836 2 8.892643293971833 3.6580324612396775 49.08945875689063 -4 2 0
274 3 11.484527119125367 1.8903251811254342 49.13369212764701 -4 2 0
259 3 14.06357711723669 0.1455249992979078 49.024727799426266 -4 2 0
821 3 12.83151017130483 3.7560238850882612 51.24387156970674 -4 2 0
260 3 15.306870422503696 2.0648666973416656 51.241505894155814 -4 2 0
812 2 14.132608534951867 2.8644309437356203 49.04018827452648 -4 2 0
257 3 12.75974018787093 1.1065451149606187 51.15347003791912 -4 2 0
813 3 15.378122303864597 4.652542530800075 51.1429870842763 -4 2 0
847 3 3.857309741306851 4.7420194625266525 48.99196889254101 -4 2 0
862 3 3.848175747409394 7.248617859044366 48.959620649804116 -4 2 0
858 3 2.5942643469342634 5.569452695471174 51.1448474243908 -4 2 0
817 3 1.3391526397593099 6.402679334690789 48.95831006919636 -3 2 0
849 3 5.128321347414032 6.372545461358882 51.13396102524471 -4 2 0
854 3 7.710087243852756 7.310776406375877 51.216241628053304 -4 2 0
833 3 7.650655581050772 4.607012125591473 51.22689629590708 -4 2 0
852 3 6.30895091447173 5.4935048166804705 49.05447805013196 -4 2 0
820 2 11.578173651040334 4.6068360904216075 49.076969105628386 -4 2 0
837 2 8.951533035092991 6.4389799423451946 49.08314139133632 -4 2 0
838 3 10.250826810215097 5.553519402160153 51.232946726294635 -4 2 0
826 3 14.185935107590714 8.13390771054173 48.94764674825174 -4 2 0
825 3 14.173034096127799 5.605352847431738 49.01761668835775 -4 2 0