LAMMPS (22 Dec 2022)
OMP_NUM_THREADS environment is not set. Defaulting to 1 thread. (../comm.cpp:98)
  using 1 OpenMP thread(s) per MPI task
# general variables
variable	temperature equal 1200 #change this to the temperature of interest
variable	nsteps_run equal 1000000

# general settings
units		metal
dimension 3
boundary	p p p

#processors      3 3 3
atom_style	atomic

# ------------------- ATOM DEFINE ------------------------------

variable        latparam equal 3.14489999999968             #variable

variable        xl equal 0
variable        xh equal 3
variable        yl equal 0
variable        yh equal 3
variable        zl equal 0
variable        zh equal 16

lattice         bcc ${latparam} orient x 1 1 -2 orient y 1 1 1 orient z 1 -1 0
lattice         bcc 3.14489999999968 orient x 1 1 -2 orient y 1 1 1 orient z 1 -1 0
Lattice spacing in x,y,z = 5.1356002 5.4471266 4.4475602
region          mybox block ${xl} ${xh} ${yl} ${yh} ${zl} ${zh}
region          mybox block 0 ${xh} ${yl} ${yh} ${zl} ${zh}
region          mybox block 0 3 ${yl} ${yh} ${zl} ${zh}
region          mybox block 0 3 0 ${yh} ${zl} ${zh}
region          mybox block 0 3 0 3 ${zl} ${zh}
region          mybox block 0 3 0 3 0 ${zh}
region          mybox block 0 3 0 3 0 16

create_box      5 mybox
Created orthogonal box = (0 0 0) to (15.406801 16.34138 71.160964)
  1 by 2 by 8 MPI processor grid

mass 1 180.948
mass 2 92.9064
mass 3 50.9415
mass 4 95.94
mass 5 183.84

create_atoms 3 box
Created 1152 atoms
  using lattice units in orthogonal box = (0 0 0) to (15.406801 16.34138 71.160964)
  create_atoms CPU = 0.001 seconds
set type 3 type/ratio 2 0.4 384
Setting atom values ...
  460 settings made for type/ratio

# ----------------------- FORCE FIELDS -----------------------
pair_style mlip mlip.ini
pair_coeff * *

# ------------------------- SETTINGS --------------------------
timestep 0.001
delete_atoms overlap 2 all all
System init for delete_atoms ...
Neighbor list info ...
  update: every = 1 steps, delay = 0 steps, check = yes
  max neighbors/atom: 2000, page size: 100000
  master list distance cutoff = 6.8
  ghost atom cutoff = 6.8
  binsize = 3.4, bins = 5 5 21
  2 neighbor lists, perpetual/occasional/extra = 1 1 0
  (1) command delete_atoms, occasional, copy from (2)
      attributes: full, newton on
      pair build: copy
      stencil: none
      bin: none
  (2) pair mlip, perpetual
      attributes: full, newton on
      pair build: full/bin/atomonly
      stencil: full/bin/3d
      bin: standard
Deleted 0 atoms, new total = 1152
velocity all create ${temperature} 4928459 rot yes dist gaussian
velocity all create 1200 4928459 rot yes dist gaussian

fix 1 all atom/swap 1 1 114514 ${temperature} types 3 2
fix 1 all atom/swap 1 1 114514 1200 types 3 2
fix temp all npt temp ${temperature} ${temperature} 0.1 iso 0 0 0.1
fix temp all npt temp 1200 ${temperature} 0.1 iso 0 0 0.1
fix temp all npt temp 1200 1200 0.1 iso 0 0 0.1
thermo 1000
thermo_style custom step pe ke etotal time cpu tpcpu

dump 1 all custom 20000 dump.* id type x y z
run ${nsteps_run}
run 1000000
Neighbor list info ...
  update: every = 1 steps, delay = 0 steps, check = yes
  max neighbors/atom: 2000, page size: 100000
  master list distance cutoff = 6.8
  ghost atom cutoff = 6.8
  binsize = 3.4, bins = 5 5 21
  1 neighbor lists, perpetual/occasional/extra = 1 0 0
  (1) pair mlip, perpetual
      attributes: full, newton on
      pair build: full/bin/atomonly
      stencil: full/bin/3d
      bin: standard
Per MPI rank memory allocation (min/avg/max) = 4.345 | 4.351 | 4.355 Mbytes
   Step         PotEng         KinEng         TotEng          Time           CPU           T/CPU     
         0  -10812.172      178.53411     -10633.638      0              0              0            
      1000  -10664.486      178.36305     -10486.123      1              111.67899      0.0089542352 
      2000  -10652.042      178.33021     -10473.712      2              223.42215      0.0089490942 
      3000  -10659.145      176.25975     -10482.886      3              335.21538      0.0089450855 
      4000  -10653.706      178.90995     -10474.796      4              448.84192      0.0088007603 
      5000  -10657.336      177.95768     -10479.378      5              566.83694      0.0084749339 
      6000  -10654.276      177.86518     -10476.411      6              681.86686      0.0086933903 
      7000  -10662.063      178.72456     -10483.339      7              793.77223      0.0089361223 
      8000  -10652.94       180.23524     -10472.705      8              901.81489      0.0092556034 
      9000  -10669.548      177.92572     -10491.622      9              1008.9305      0.0093357055 
     10000  -10658.41       187.45932     -10470.95       10             1114.2783      0.0094923712 
     11000  -10659.887      168.6462      -10491.241      11             1220.1487      0.0094455069 
     12000  -10659.87       184.41818     -10475.452      12             1325.4008      0.0095010035 
     13000  -10665.525      175.71174     -10489.814      13             1432.2248      0.0093611903 
     14000  -10651.896      177.07931     -10474.817      14             1537.3129      0.0095158207 
     15000  -10660.98       180.12382     -10480.856      15             1642.1978      0.0095342667 
     16000  -10658.891      175.23489     -10483.656      16             1745.5625      0.0096744752 
     17000  -10656.907      180.49563     -10476.411      17             1849.3856      0.0096317761 
     18000  -10662.667      174.10317     -10488.564      18             1953.6863      0.009587663  
     19000  -10654.259      176.56424     -10477.695      19             2058.651       0.0095270123 
     20000  -10651.894      179.30784     -10472.586      20             2162.7466      0.0096065471 
     21000  -10662.163      170.35894     -10491.804      21             2268.3274      0.0094714221 
     22000  -10662.509      178.50837     -10484          22             2372.862       0.0095662093 
     23000  -10658.18       181.83643     -10476.343      23             2476.8194      0.009619328  
     24000  -10656.737      181.71242     -10475.024      24             2579.8455      0.0097062742 
     25000  -10660.86       174.32655     -10486.533      25             2683.0032      0.0096938972 
     26000  -10652.81       181.30047     -10471.51       26             2787.0685      0.0096093559 
     27000  -10660.266      178.29382     -10481.972      27             2891.4099      0.0095839198 
     28000  -10659.556      183.28301     -10476.273      28             2995.1355      0.0096408242 
     29000  -10662.961      181.5122      -10481.449      29             3099.1239      0.0096164534 
     30000  -10673.58       176.52607     -10497.054      30             3202.9121      0.0096350071 
     31000  -10653.157      181.83691     -10471.32       31             3305.8995      0.009709924  
     32000  -10654.126      179.69191     -10474.434      32             3408.5518      0.009741628  
     33000  -10663.39       168.90034     -10494.49       33             3511.8288      0.0096826961 
     34000  -10655.586      180.03592     -10475.551      34             3615.8566      0.0096128154 
     35000  -10651.615      176.51304     -10475.102      35             3721.1279      0.0094992673 
     36000  -10659.431      176.53459     -10482.897      36             3826.6005      0.0094811336 
     37000  -10663.804      183.56806     -10480.236      37             3931.8385      0.0095022718 
     38000  -10652.405      173.8963      -10478.509      38             4035.7786      0.0096209276 
     39000  -10658.645      180.58104     -10478.064      39             4139.6407      0.0096281497 
     40000  -10658.326      176.39419     -10481.932      40             4242.8352      0.0096904376 
     41000  -10654.286      177.77703     -10476.509      41             4345.4583      0.0097443973 
     42000  -10652.437      180.36448     -10472.073      42             4449.5336      0.0096084274 
     43000  -10655.346      173.22363     -10482.123      43             4554.4308      0.0095331443 
     44000  -10661.997      191.45775     -10470.539      44             4660.1661      0.0094575746 
     45000  -10655.89       174.7696      -10481.12       45             4765.7108      0.0094746557 
     46000  -10651.406      175.30947     -10476.096      46             4870.7753      0.0095179678 
     47000  -10653.25       179.29424     -10473.956      47             4975.4391      0.0095543982 
     48000  -10660.427      173.82137     -10486.605      48             5080.0223      0.0095617715 
     49000  -10663.469      186.0548      -10477.414      49             5184.4848      0.009572813  
     50000  -10666.247      183.6659      -10482.581      50             5288.6403      0.0096010252 
     51000  -10656.173      185.55456     -10470.619      51             5392.968       0.0095851806 
     52000  -10661.701      176.84805     -10484.853      52             5497.4459      0.0095714033 
     53000  -10657.612      181.15766     -10476.455      53             5602.1626      0.0095495788 
     54000  -10664.686      176.40252     -10488.284      54             5707.9722      0.0094509341 
     55000  -10665.703      179.82895     -10485.874      55             5812.8907      0.0095312067 
     56000  -10652.123      183.86897     -10468.254      56             5916.7221      0.009631004  
     57000  -10670.33       184.22469     -10486.105      57             6020.3203      0.0096526706 
     58000  -10656.404      180.34617     -10476.058      58             6123.8741      0.0096568213 
     59000  -10661.426      179.67191     -10481.754      59             6227.3258      0.0096663424 
     60000  -10657.295      181.27708     -10476.018      60             6330.8764      0.0096571131 
     61000  -10661.716      179.4814      -10482.234      61             6434.2512      0.0096735382 
     62000  -10655.936      179.36886     -10476.567      62             6537.6318      0.0096730017 
     63000  -10663.698      179.13645     -10484.562      63             6641.9598      0.0095851458 
     64000  -10662.338      176.56144     -10485.776      64             6746.7087      0.0095466433 
     65000  -10657.432      179.80643     -10477.626      65             6850.8804      0.0095995389 
     66000  -10644.625      177.36998     -10467.255      66             6954.7412      0.0096282662 
     67000  -10658.969      174.56055     -10484.408      67             7058.0114      0.0096833395 
     68000  -10651.541      176.70566     -10474.835      68             7161.9132      0.0096244707 
     69000  -10664.815      172.89432     -10491.921      69             7266.0914      0.0095989383 
     70000  -10653.563      179.2546      -10474.308      70             7369.3797      0.0096816395 
     71000  -10659.975      179.10786     -10480.867      71             7473.4184      0.0096118093 
     72000  -10654.708      186.59823     -10468.11       72             7577.3659      0.0096202371 
     73000  -10655.878      180.88004     -10474.998      73             7682.3186      0.0095280994 
     74000  -10664.88       177.15954     -10487.72       74             7786.7582      0.0095749146 
     75000  -10660.762      183.01925     -10477.742      75             7890.6856      0.009622104  
     76000  -10659.314      179.28906     -10480.025      76             7994.8458      0.0096005981 
     77000  -10658.871      176.56083     -10482.31       77             8099.2345      0.0095795802 
     78000  -10650.415      172.1124      -10478.302      78             8204.3106      0.0095169095 
     79000  -10664.69       188.94737     -10475.743      79             8308.4959      0.0095982798 
     80000  -10664.288      170.85143     -10493.437      80             8415.527       0.0093430851 
     81000  -10653.583      177.53588     -10476.047      81             8519.9464      0.0095767647 
     82000  -10662.545      174.75315     -10487.792      82             8622.9093      0.0097122326 
     83000  -10648.458      180.17917     -10468.279      83             8725.6831      0.0097301092 
     84000  -10658.875      179.5523      -10479.323      84             8828.4143      0.0097341391 
     85000  -10654.445      179.42187     -10475.023      85             8931.3434      0.0097154208 
     86000  -10666.269      168.76091     -10497.508      86             9035.1556      0.0096327785 
     87000  -10660.869      181.06579     -10479.803      87             9140.6437      0.0094797466 
     88000  -10653.88       181.09408     -10472.786      88             9245.4359      0.0095426929 
     89000  -10659.18       176.91521     -10482.265      89             9348.4298      0.009709318  
     90000  -10651.714      183.15516     -10468.558      90             9450.1946      0.009826575  
     91000  -10667.712      180.36408     -10487.348      91             9552.2271      0.0098008058 
     92000  -10660.581      184.06157     -10476.519      92             9654.9184      0.0097379183 
     93000  -10657.349      178.33496     -10479.014      93             9758.9689      0.0096107184 
     94000  -10669.751      179.46831     -10490.283      94             9863.0752      0.0096055702 
     95000  -10650.323      174.71584     -10475.607      95             9967.9956      0.0095310325 
     96000  -10670.248      180.01592     -10490.232      96             10072.245      0.0095924222 
     97000  -10655.677      179.9137      -10475.763      97             10176.577      0.0095847003 
     98000  -10647.162      171.00923     -10476.152      98             10279.8        0.0096878114 
     99000  -10657.277      185.00467     -10472.272      99             10382.009      0.009783883  
    100000  -10655.254      171.93812     -10483.316      100            11247.312      0.0011556642 
    101000  -10653.858      177.246       -10476.612      101            11350.152      0.0097238984 
    102000  -10658.114      174.63306     -10483.481      102            11453.357      0.0096894167 
    103000  -10652.777      169.5018      -10483.275      103            11556.45       0.0097000049 
    104000  -10655.418      175.88141     -10479.537      104            11658.594      0.0097900596 
    105000  -10657.618      178.54729     -10479.07       105            11760.497      0.0098132488 
    106000  -10657.081      183.76235     -10473.319      106            11862.389      0.0098143496 
    107000  -10658.42       174.82349     -10483.597      107            11965.123      0.0097338107 
    108000  -10651.342      175.04629     -10476.295      108            12067.871      0.0097325945 
    109000  -10658.741      176.74248     -10481.998      109            12171.427      0.0096565628 
    110000  -10659.112      179.30864     -10479.804      110            12275.83       0.0095783347 
    111000  -10658.581      178.1614      -10480.419      111            12380.771      0.0095290967 
    112000  -10654.414      179.73429     -10474.68       112            12484.67       0.0096248049 
    113000  -10656.382      179.61998     -10476.762      113            12588.307      0.0096489902 
    114000  -10654.852      183.59098     -10471.261      114            12692.763      0.0095734506 
    115000  -10660.815      173.72371     -10487.091      115            12797.861      0.0095149081 
    116000  -10652.889      175.63162     -10477.257      116            12905.409      0.0092981664 
    117000  -10665.164      183.42229     -10481.742      117            13019.499      0.0087650107 
    118000  -10657.105      184.14585     -10472.959      118            13139.949      0.008302254  
    119000  -10655.672      184.78512     -10470.887      119            13253.947      0.0087720228 
    120000  -10658.101      175.35093     -10482.75       120            13367.628      0.0087965737 
    121000  -10655.035      176.12146     -10478.913      121            13480.668      0.0088464395 
    122000  -10658.48       171.50115     -10486.978      122            13591.518      0.0090212119 
    123000  -10659.616      184.02484     -10475.591      123            13701.26       0.0091122595 
    124000  -10661.711      177.83565     -10483.875      124            13811.428      0.0090770578 
    125000  -10655.768      179.75705     -10476.011      125            13921.918      0.009050567  
    126000  -10666.352      174.48817     -10491.864      126            14034.141      0.0089108176 
    127000  -10656.387      182.02011     -10474.367      127            14140.508      0.009401402  
    128000  -10664.361      179.09758     -10485.264      128            14246.56       0.0094293285 
    129000  -10662.25       182.50921     -10479.741      129            14352.356      0.0094521616 
    130000  -10649.734      184.42213     -10465.312      130            14457.768      0.0094866377 
    131000  -10650.885      172.28419     -10478.601      131            14563.439      0.0094633421 
    132000  -10664.079      184.28742     -10479.791      132            14667.982      0.0095654131 
    133000  -10662.035      177.75202     -10484.283      133            14772.44       0.0095732228 
    134000  -10655.823      176.34324     -10479.479      134            14876.819      0.0095804752 
    135000  -10659.077      179.14215     -10479.935      135            14981.509      0.0095520162 
    136000  -10663.107      182.67425     -10480.433      136            15085.229      0.0096413424 
    137000  -10650.35       173.61387     -10476.736      137            15188.215      0.0097100652 
    138000  -10652.537      176.03417     -10476.503      138            15291.035      0.0097257312 
    139000  -10661.299      182.47599     -10478.823      139            15393.087      0.0097988751 
    140000  -10656.18       170.41441     -10485.765      140            15494.953      0.0098168816 
    141000  -10650.474      178.03571     -10472.438      141            15596.407      0.009856616  
    142000  -10663.768      176.93451     -10486.834      142            15698.647      0.0097809336 
    143000  -10657.329      179.97526     -10477.353      143            15801.379      0.0097340918 
    144000  -10660.064      171.97052     -10488.094      144            15905.496      0.009604606  
    145000  -10661.433      176.429       -10485.004      145            16009.681      0.0095982722 
    146000  -10655.038      181.03348     -10474.004      146            16114.648      0.0095268016 
    147000  -10668.779      167.95915     -10500.82       147            16221.474      0.009361013  
    148000  -10658.574      179.9263      -10478.647      148            16330.019      0.0092127447 
    149000  -10658.548      181.37618     -10477.171      149            16443.338      0.0088247118 
    150000  -10662.664      170.8383      -10491.826      150            16555.259      0.0089348342 
    151000  -10658.752      180.19329     -10478.559      151            16663.907      0.0092039992 
    152000  -10653.722      180.7132      -10473.009      152            16775.154      0.0089890075 
    153000  -10660.275      179.0085      -10481.266      153            16882.084      0.0093519306 
    154000  -10655.371      179.39337     -10475.978      154            16986.254      0.0095997315 
    155000  -10657.819      175.84559     -10481.974      155            17090.51       0.0095917392 
    156000  -10658.176      177.27694     -10480.899      156            17193.286      0.0097298863 
    157000  -10665.693      177.34377     -10488.349      157            17296.347      0.0097030515 
    158000  -10653.37       176.59128     -10476.778      158            17399.224      0.0097202779 
    159000  -10663.657      173.86765     -10489.789      159            17502.491      0.0096837154 
    160000  -10655.717      175.90467     -10479.812      160            17605.859      0.0096741243 
    161000  -10665.492      186.13126     -10479.361      161            17709.474      0.0096511424 
    162000  -10658.641      172.33145     -10486.31       162            17814.494      0.0095219975 
    163000  -10663.059      175.14501     -10487.914      163            17920.815      0.0094054222 
    164000  -10656.181      182.57151     -10473.609      164            18026.945      0.0094224762 
    165000  -10654.803      181.40877     -10473.394      165            18131.668      0.009549004  
    166000  -10664.455      174.53565     -10489.919      166            18235.703      0.0096120686 
    167000  -10660.096      184.05538     -10476.04       167            18339.286      0.0096541406 
    168000  -10666.463      185.07233     -10481.391      168            18442.752      0.0096649607 
    169000  -10660.055      176.16473     -10483.891      169            18546.724      0.0096179856 
    170000  -10638.707      187.29308     -10451.414      170            18650.914      0.0095978574 
    171000  -10651.176      181.98306     -10469.193      171            18757.197      0.0094088599 
    172000  -10663.629      182.59549     -10481.033      172            18864.273      0.0093391486 
    173000  -10649.554      177.43951     -10472.114      173            18971.691      0.0093094418 
    174000  -10662.384      178.28573     -10484.099      174            19079.753      0.0092539632 
    175000  -10661.986      180.45313     -10481.532      175            19189.103      0.0091449575 
    176000  -10656.662      182.12107     -10474.541      176            19299.58       0.0090516069 
    177000  -10658.03       186.38551     -10471.645      177            19406.502      0.0093526523 
    178000  -10657.98       176.45016     -10481.53       178            19510.894      0.0095793101 
    179000  -10658.04       179.98007     -10478.06       179            19616.659      0.0094548954 
    180000  -10653.731      176.84301     -10476.888      180            19722.613      0.0094380453 
    181000  -10659.506      176.4066      -10483.1        181            19826.729      0.009604684  
    182000  -10651.239      177.71399     -10473.525      182            19931.354      0.0095578928 
    183000  -10658.275      172.98232     -10485.293      183            20035.519      0.0096001971 
    184000  -10661.334      175.27935     -10486.055      184            20139.308      0.0096349702 
    185000  -10660.227      183.97809     -10476.249      185            20242.852      0.0096577166 
    186000  -10664.068      177.66279     -10486.405      186            20346.153      0.009680436  
    187000  -10659.82       180.92645     -10478.894      187            20449.476      0.009678409  
    188000  -10659.325      172.80605     -10486.519      188            20553.938      0.0095728439 
    189000  -10654.583      185.02376     -10469.559      189            20658.286      0.0095832649 
    190000  -10663.642      180.34751     -10483.294      190            20762.605      0.0095859882 
    191000  -10662.234      177.73485     -10484.499      191            20867.611      0.0095233239 
    192000  -10650.757      174.61689     -10476.14       192            20971.449      0.009630384  
    193000  -10653.311      175.9631      -10477.348      193            21074.504      0.0097034923 
    194000  -10660.301      180.93924     -10479.362      194            21176.826      0.0097730941 
    195000  -10662.123      173.86786     -10488.256      195            21278.805      0.0098059    
    196000  -10656.193      177.73833     -10478.455      196            21380.773      0.0098070411 
    197000  -10672.851      177.39448     -10495.456      197            21482.561      0.0098243331 
    198000  -10653.179      178.98603     -10474.193      198            21585.003      0.0097616726 
    199000  -10656.138      174.89684     -10481.242      199            21687.587      0.0097480307 
    200000  -10648.277      181.1503      -10467.127      200            21790.47       0.0097198547 
    201000  -10666.01       181.77911     -10484.231      201            21893.715      0.0096856186 
    202000  -10661.363      176.9123      -10484.451      202            21998.033      0.00958607   
    203000  -10663.588      176.08318     -10487.505      203            22101.198      0.0096932972 
    204000  -10654.242      184.79867     -10469.443      204            22203.872      0.0097395249 
    205000  -10662.476      177.40062     -10485.075      205            22306.267      0.0097660976 
    206000  -10649.515      181.87948     -10467.636      206            22408.032      0.0098265164 
    207000  -10658.931      174.93813     -10483.993      207            22509.84       0.009822457  
    208000  -10655.264      178.02016     -10477.244      208            22612.185      0.0097708723 
    209000  -10666.509      178.77108     -10487.738      209            22716.512      0.0095852929 
    210000  -10654.232      179.1013      -10475.13       210            22824.414      0.0092676477 
    211000  -10658.72       175.8236      -10482.897      211            22935.191      0.0090271403 
    212000  -10657.241      180.98848     -10476.252      212            23047.7        0.0088881267 
    213000  -10655.369      178.22412     -10477.145      213            23160.219      0.0088873946 
    214000  -10665.079      176.19987     -10488.879      214            23268.669      0.0092208585 
    215000  -10652.232      183.53829     -10468.694      215            23377.116      0.0092210898 
    216000  -10657.108      176.77075     -10480.337      216            23487.69       0.0090437723 
    217000  -10655.345      179.91986     -10475.425      217            23593.926      0.0094129781 
    218000  -10656.659      175.46639     -10481.193      218            23698.478      0.0095645653 
    219000  -10663.975      177.9393      -10486.035      219            23803.229      0.0095464885 
    220000  -10653.234      180.95473     -10472.279      220            23907          0.0096365933 
    221000  -10659.53       179.94483     -10479.585      221            24010.349      0.0096759905 
    222000  -10661.165      176.17368     -10484.991      222            24113.355      0.0097081848 
    223000  -10659.804      181.27462     -10478.53       223            24216.118      0.0097310516 
    224000  -10661.257      181.08715     -10480.17       224            24320.338      0.0095951151 
    225000  -10660.948      174.24847     -10486.7        225            24425.854      0.0094772432 
    226000  -10648.029      184.92211     -10463.107      226            24530.313      0.0095731702 
    227000  -10660.318      176.46006     -10483.858      227            24633.506      0.0096905808 
    228000  -10665.229      186.84352     -10478.385      228            24735.789      0.0097767611 
    229000  -10671.702      180.72909     -10490.973      229            24837.836      0.009799413  
    230000  -10661.289      181.6146      -10479.674      230            24940.53       0.0097377003 
    231000  -10657.079      178.19341     -10478.885      231            25043.732      0.0096897003 
    232000  -10662.92       178.53521     -10484.384      232            25146.438      0.0097364805 
    233000  -10657.688      178.3899      -10479.298      233            25248.676      0.0097811413 
    234000  -10664.309      173.46471     -10490.844      234            25350.897      0.0097827665 
    235000  -10655.923      179.69057     -10476.233      235            25454.062      0.0096931248 
    236000  -10654.134      179.90515     -10474.229      236            25558.592      0.0095667073 
    237000  -10665.35       179.90897     -10485.441      237            25665.102      0.0093887324 
    238000  -10665.941      189.44951     -10476.491      238            25775.628      0.0090477012 
    239000  -10655.293      181.19434     -10474.098      239            25886.799      0.008995134  
    240000  -10652.913      178.4534      -10474.46       240            25992.019      0.0095038469 
    241000  -10659.137      181.33814     -10477.798      241            26095.052      0.0097056381 
    242000  -10655.622      179.89949     -10475.723      242            26197.496      0.0097614112 
    243000  -10649.916      171.61845     -10478.297      243            26301.914      0.0095769495 
    244000  -10660.008      188.71095     -10471.297      244            26406.567      0.0095553938 
    245000  -10654.873      178.6354      -10476.238      245            26511.721      0.0095098077 
    246000  -10663.846      183.46394     -10480.382      246            26614.681      0.0097125672 
    247000  -10644.085      176.00158     -10468.084      247            26716.882      0.0097845987 
    248000  -10661.755      180.31282     -10481.442      248            26821.249      0.0095816339 
    249000  -10652.094      178.04743     -10474.047      249            26929.636      0.0092261365 
    250000  -10651.821      173.8927      -10477.928      250            27036.725      0.0093380855 
    251000  -10656.86       172.16813     -10484.692      251            27140.664      0.0096210282 
    252000  -10656.36       173.20669     -10483.154      252            27243.753      0.0097003133 
    253000  -10655.24       180.95491     -10474.285      253            27346.694      0.0097143507 
    254000  -10658.106      182.13616     -10475.97       254            27450.533      0.0096302453 
    255000  -10658.877      173.04932     -10485.828      255            27554.357      0.0096316694 
    256000  -10659.663      184.10701     -10475.556      256            27658.35       0.0096160568 
    257000  -10645.796      183.1078      -10462.688      257            27763.068      0.0095494724 
    258000  -10659.713      175.15746     -10484.556      258            27870.872      0.0092760591 
    259000  -10651.857      182.09777     -10469.76       259            27974.695      0.0096318111 
    260000  -10649.701      183.8142      -10465.886      260            28077.838      0.0096952191 
    261000  -10652.045      177.82644     -10474.219      261            28181.213      0.0096735114 
    262000  -10661.731      182.06645     -10479.664      262            28285.112      0.0096248207 
    263000  -10649.912      183.35729     -10466.555      263            28387.64       0.0097533571 
    264000  -10658.926      174.63765     -10484.289      264            28489.669      0.0098011686 
    265000  -10646.43       186.87348     -10459.557      265            28592.266      0.009746902  
    266000  -10660.562      178.02931     -10482.533      266            28700.226      0.0092626773 
    267000  -10655.915      176.37013     -10479.545      267            28809.808      0.0091255342 
    268000  -10663.827      178.05734     -10485.77       268            28915.809      0.009433917  
    269000  -10646.842      175.68907     -10471.153      269            29017.969      0.0097885897 
    270000  -10657.889      174.4728      -10483.417      270            29119.748      0.0098251528 
    271000  -10658.408      176.03167     -10482.377      271            29222.788      0.0097049741 
    272000  -10657.91       180.11598     -10477.794      272            29326.415      0.0096500361 
    273000  -10655.764      177.67326     -10478.091      273            29429.588      0.0096924686 
    274000  -10665.753      175.50826     -10490.245      274            29532.917      0.0096777886 
    275000  -10651.001      175.45618     -10475.545      275            29636.969      0.0096105465 
    276000  -10660.684      183.45831     -10477.226      276            29741.07       0.0096061371 
    277000  -10663.92       169.64001     -10494.28       277            29844.328      0.0096844119 
    278000  -10653.397      177.65754     -10475.739      278            29949.188      0.009536518  
    279000  -10653.971      175.98865     -10477.982      279            30057.218      0.0092567297 
    280000  -10655.773      179.47057     -10476.303      280            30169.081      0.0089395103 
    281000  -10654.393      172.67535     -10481.718      281            30281.061      0.0089301273 
    282000  -10665.81       176.42543     -10489.384      282            30389.346      0.0092348862 
    283000  -10662.897      185.02261     -10477.875      283            30493.882      0.009566143  
    284000  -10668.675      174.76303     -10493.912      284            30597.991      0.0096053163 
    285000  -10656.955      177.97089     -10478.984      285            30703.27       0.0094985367 
    286000  -10653.221      181.40565     -10471.815      286            30808.205      0.0095297031 
    287000  -10660.513      182.22703     -10478.286      287            30911.562      0.0096752498 
    288000  -10654.375      176.63417     -10477.741      288            31016.307      0.0095469617 
    289000  -10652.563      181.13342     -10471.429      289            31121.469      0.0095091546 
    290000  -10661.387      186.23708     -10475.15       290            31225.796      0.00958525   
    291000  -10660.101      174.77545     -10485.326      291            31329.365      0.0096554197 
    292000  -10655.994      175.646       -10480.348      292            31434.513      0.0095103231 
    293000  -10667.413      179.55024     -10487.863      293            31542.139      0.0092914366 
    294000  -10654.731      178.48157     -10476.25       294            31653.239      0.0090009003 
    295000  -10661.348      178.03763     -10483.31       295            31768.551      0.0086721298 
    296000  -10656.047      181.04355     -10475.004      296            31882.553      0.008771765  
    297000  -10661.343      181.80209     -10479.541      297            31990.209      0.0092888598 
    298000  -10659.374      180.73702     -10478.637      298            32095.198      0.0095248772 
    299000  -10650.732      178.15443     -10472.578      299            32197.572      0.0097680696 
    300000  -10658.826      168.5211      -10490.305      300            32301.41       0.0096303923 
    301000  -10660.608      183.9793      -10476.628      301            32406.022      0.0095591505 
    302000  -10660.171      179.50205     -10480.669      302            32508.722      0.0097370743 
    303000  -10666.558      177.70867     -10488.85       303            32610.65       0.0098108312 
    304000  -10660.63       189.23682     -10471.393      304            32712.73       0.0097962345 
    305000  -10663.203      179.80055     -10483.403      305            32816.032      0.0096803252 
    306000  -10647.57       177.83594     -10469.734      306            32920.375      0.0095838198 
    307000  -10664.772      182.79942     -10481.972      307            33023.813      0.0096675895 
    308000  -10658.999      171.81077     -10487.188      308            33126.343      0.0097533118 
    309000  -10661.32       180.84461     -10480.475      309            33229.976      0.0096494347 
    310000  -10659.442      177.63451     -10481.807      310            33339.264      0.0091500831 
    311000  -10657.93       181.25567     -10476.674      311            33451.668      0.0088964784 
    312000  -10667.127      173.1716      -10493.956      312            33560.566      0.009182891  
    313000  -10653.965      172.43748     -10481.527      313            33666.495      0.0094403133 
    314000  -10660.239      177.10764     -10483.132      314            33769.467      0.0097114319 
    315000  -10657.355      179.21793     -10478.137      315            33873.102      0.0096492074 
    316000  -10651.112      178.51476     -10472.597      316            33978.009      0.0095322521 
    317000  -10669.812      179.82876     -10489.984      317            34082.186      0.009599012  
    318000  -10657.755      180.69136     -10477.063      318            34185.074      0.0097193576 
    319000  -10662.485      176.42736     -10486.058      319            34287.588      0.0097547731 
    320000  -10656.673      185.43991     -10471.233      320            34390.971      0.0096727644 
    321000  -10655.155      173.73303     -10481.422      321            34495.291      0.0095858643 
    322000  -10652.404      184.29019     -10468.114      322            34599.342      0.0096106671 
    323000  -10659.698      172.19988     -10487.498      323            34702.999      0.0096472328 
    324000  -10655.057      184.2988      -10470.758      324            34806.209      0.0096890117 
    325000  -10653.089      172.75898     -10480.33       325            34910.329      0.0096042955 
    326000  -10662.59       177.15126     -10485.439      326            35014.181      0.0096290987 
    327000  -10655.579      176.40046     -10479.178      327            35116.897      0.0097355609 
    328000  -10655.042      188.2017      -10466.84       328            35222.516      0.0094679712 
    329000  -10657.036      178.01406     -10479.022      329            35327.576      0.0095183639 
    330000  -10656.839      177.24487     -10479.594      330            35433.8        0.009414033  
    331000  -10658.737      180.27225     -10478.464      331            35540.734      0.0093515931 
    332000  -10657.682      182.90559     -10474.777      332            35650.857      0.0090807789 
    333000  -10657.085      177.74446     -10479.34       333            35764.585      0.0087928795 
    334000  -10671.161      181.25395     -10489.907      334            35876.143      0.0089639294 
    335000  -10653.946      180.21996     -10473.726      335            35983.61       0.0093052089 
    336000  -10649.013      177.48276     -10471.53       336            36090.05       0.009394945  
    337000  -10656.088      181.5383      -10474.549      337            36195.662      0.0094686083 
    338000  -10655.261      180.584       -10474.677      338            36304.514      0.0091868534 
    339000  -10646.561      179.12026     -10467.441      339            36414.523      0.0090901033 
    340000  -10660.59       177.36237     -10483.227      340            36526.192      0.0089551005 
    341000  -10651.763      172.41403     -10479.348      341            36638.643      0.0088927706 
    342000  -10657.191      175.04906     -10482.142      342            36750.555      0.0089355898 
    343000  -10657.917      177.12005     -10480.797      343            36861.998      0.0089731791 
    344000  -10662.392      177.62562     -10484.767      344            36969.373      0.0093131756 
    345000  -10665.603      177.34652     -10488.257      345            37079.931      0.0090450027 
    346000  -10656.087      180.65852     -10475.428      346            37186.893      0.009349062  
    347000  -10656.973      180.75423     -10476.218      347            37292.1        0.0095051386 
    348000  -10665.458      176.82825     -10488.629      348            37402.342      0.0090708907 
    349000  -10658.291      177.65174     -10480.64       349            37505.448      0.0096988324 
    350000  -10658.299      183.39677     -10474.902      350            37607.956      0.0097552554 
    351000  -10660.517      177.95999     -10482.557      351            37710.534      0.0097487398 
    352000  -10658.064      175.62206     -10482.442      352            37813.555      0.0097067221 
    353000  -10659.717      173.01473     -10486.702      353            37916.809      0.0096848819 
    354000  -10654.921      167.74742     -10487.174      354            38020.323      0.0096605663 
    355000  -10658.362      180.23098     -10478.131      355            38123.928      0.0096520454 
    356000  -10665.83       178.49309     -10487.337      356            38226.143      0.0097832151 
    357000  -10653.549      178.79906     -10474.75       357            38328.022      0.0098156202 
    358000  -10660.696      180.10034     -10480.595      358            38430.393      0.0097683788 
    359000  -10663.388      171.865       -10491.523      359            38533.165      0.0097302692 
    360000  -10657.575      181.17318     -10476.402      360            38637.569      0.0095781461 
    361000  -10662.133      177.86189     -10484.272      361            38741.082      0.0096606445 
    362000  -10657.16       180.11951     -10477.041      362            38843.797      0.0097356745 
    363000  -10657.03       177.43461     -10479.596      363            38947.058      0.0096842054 
    364000  -10652.64       176.99184     -10475.648      364            39050.786      0.0096405926 
    365000  -10666.622      173.32089     -10493.301      365            39154.546      0.0096376237 
    366000  -10658.214      176.65577     -10481.558      366            39257.123      0.0097487659 
    367000  -10653.828      185.74154     -10468.086      367            39359.918      0.0097281458 
    368000  -10662.219      180.07624     -10482.142      368            39462.663      0.0097328097 
    369000  -10669.91       181.86516     -10488.045      369            39566.114      0.0096663746 
    370000  -10661.376      182.09942     -10479.277      370            39668.791      0.0097392758 
    371000  -10666.05       174.55349     -10491.496      371            39771.263      0.0097587785 
    372000  -10653.585      170.65012     -10482.934      372            39874.223      0.0097125469 
    373000  -10649.022      178.49961     -10470.522      373            39978.472      0.0095923838 
    374000  -10659.693      174.09609     -10485.597      374            40082.716      0.0095928638 
    375000  -10659.467      178.73575     -10480.731      375            40185.454      0.0097335033 
    376000  -10653.203      183.41383     -10469.789      376            40288.329      0.009720578  
    377000  -10659.974      176.5289      -10483.445      377            40392.236      0.0096239484 
    378000  -10652.716      178.70772     -10474.008      378            40495.463      0.0096874474 
    379000  -10659.793      181.7694      -10478.023      379            40598.358      0.0097186258 
    380000  -10658.881      176.43306     -10482.448      380            40702.017      0.0096469914 
    381000  -10651.823      173.73045     -10478.092      381            40806.604      0.0095614681 
    382000  -10649.358      177.79765     -10471.561      382            40908.797      0.0097853399 
    383000  -10661.555      177.954       -10483.601      383            41011.236      0.0097619415 
    384000  -10653.571      185.87425     -10467.697      384            41114.83       0.0096531157 
    385000  -10661.69       175.44377     -10486.246      385            41217.387      0.0097506589 
    386000  -10650.777      184.71148     -10466.066      386            41319.836      0.0097608797 
    387000  -10663.978      177.96797     -10486.01       387            41423.431      0.0096529834 
    388000  -10665.163      172.3781      -10492.785      388            41527.625      0.0095975019 
    389000  -10655.984      178.0458      -10477.939      389            41631.584      0.0096191979 
    390000  -10658.089      177.08572     -10481.003      390            41733.884      0.009775131  
    391000  -10657.208      179.99043     -10477.218      391            41836.381      0.0097564092 
    392000  -10668.151      183.50134     -10484.65       392            41939.636      0.0096847318 
    393000  -10659.468      181.08868     -10478.379      393            42044.023      0.009579753  
    394000  -10668.527      182.45663     -10486.07       394            42148.628      0.0095597948 
    395000  -10663.074      184.10773     -10478.966      395            42251.847      0.0096881343 
    396000  -10652.929      181.59584     -10471.333      396            42354.989      0.0096953793 
    397000  -10658.177      173.97666     -10484.201      397            42457.254      0.0097785054 
    398000  -10657.966      179.97992     -10477.986      398            42559.442      0.0097858604 
    399000  -10649.831      177.5854      -10472.245      399            42661.609      0.00978792   
    400000  -10660.167      182.39885     -10477.768      400            42763.669      0.009798131  
    401000  -10660.98       180.55661     -10480.423      401            42866.407      0.009733558  
    402000  -10664.233      176.25468     -10487.979      402            42969.87       0.0096652958 
    403000  -10655.379      182.06976     -10473.309      403            43073.907      0.0096119438 
    404000  -10658.26       178.76262     -10479.498      404            43178.989      0.0095163561 
    405000  -10666.277      176.26996     -10490.007      405            43284.986      0.0094342557 
    406000  -10651.818      171.12805     -10480.69       406            43390.105      0.0095129891 
    407000  -10657.938      184.84516     -10473.093      407            43495.879      0.0094541282 
    408000  -10660.119      181.62457     -10478.494      408            43600.76       0.0095346017 
    409000  -10655.418      177.38358     -10478.034      409            43704.908      0.0096017089 
    410000  -10656.412      176.97041     -10479.441      410            43807.839      0.0097152554 
    411000  -10659.454      170.99088     -10488.464      411            43910.305      0.0097593483 
    412000  -10656.204      179.98645     -10476.217      412            44012.488      0.0097863968 
    413000  -10661.54       168.07594     -10493.464      413            44114.356      0.0098166019 
    414000  -10659.197      179.87357     -10479.324      414            44216.13       0.0098257461 
    415000  -10662.172      174.04604     -10488.126      415            44317.711      0.0098443011 
    416000  -10650.142      171.71799     -10478.424      416            44419.542      0.009820204  
    417000  -10649.933      180.39538     -10469.538      417            44521.847      0.0097746609 
    418000  -10661.481      186.65756     -10474.824      418            44624.38       0.0097529803 
    419000  -10652.198      183.18017     -10469.018      419            44727.395      0.0097073286 
    420000  -10660.587      176.18767     -10484.4        420            44831.725      0.0095850024 
    421000  -10665.599      187.06755     -10478.532      421            44935.718      0.0096160518 
    422000  -10652.495      177.99795     -10474.498      422            45039.322      0.0096521228 
    423000  -10658.128      178.30721     -10479.821      423            45143.876      0.0095643603 
    424000  -10662.727      170.34438     -10492.382      424            45248.591      0.0095497941 
    425000  -10659.137      184.05218     -10475.085      425            45355.931      0.0093161438 
    426000  -10652.24       177.55374     -10474.686      426            45463.325      0.009311553  
    427000  -10658.722      173.74928     -10484.973      427            45571.468      0.0092470366 
    428000  -10661.763      180.24206     -10481.521      428            45683.121      0.0089562894 
    429000  -10654.485      188.63705     -10465.848      429            45802.08       0.0084062675 
    430000  -10662.304      178.7178      -10483.587      430            45912.794      0.0090322311 
    431000  -10656.08       176.73864     -10479.341      431            46017.484      0.0095520936 
    432000  -10665.157      177.65108     -10487.505      432            46122.544      0.0095183292 
    433000  -10656.161      174.68955     -10481.471      433            46226.479      0.0096213645 
    434000  -10652.817      184.55033     -10468.266      434            46330.288      0.0096331484 
    435000  -10661.902      181.49809     -10480.404      435            46434.189      0.0096244606 
    436000  -10661.068      179.47152     -10481.596      436            46537.991      0.0096337785 
    437000  -10656.503      177.52225     -10478.981      437            46641.411      0.0096692704 
    438000  -10666.136      181.84626     -10484.29       438            46745.381      0.0096182306 
    439000  -10661.305      184.07959     -10477.226      439            46849.153      0.0096364706 
    440000  -10662.742      178.90815     -10483.834      440            46952.757      0.0096521631 
    441000  -10658.724      185.93604     -10472.788      441            47056.628      0.0096272912 
    442000  -10658.127      181.3628      -10476.764      442            47161.208      0.0095620411 
    443000  -10663.019      178.77016     -10484.248      443            47266.404      0.0095060947 
    444000  -10656.356      182.29605     -10474.06       444            47371.849      0.0094835852 
    445000  -10658.338      171.70383     -10486.634      445            47477.259      0.0094868244 
    446000  -10656.429      181.81893     -10474.61       446            47584.462      0.0093280298 
    447000  -10656.774      183.71205     -10473.062      447            47692.478      0.0092579588 
    448000  -10659.053      176.1281      -10482.925      448            47803.385      0.0090165007 
    449000  -10659.292      175.76606     -10483.526      449            47910.356      0.0093483225 
    450000  -10656.178      184.12679     -10472.051      450            48018.346      0.0092601217 
    451000  -10665.136      178.471       -10486.665      451            48122.746      0.0095785988 
    452000  -10657.012      179.86121     -10477.151      452            48226.549      0.0096335873 
    453000  -10658.006      185.73805     -10472.268      453            48329.998      0.0096666595 
    454000  -10661.789      184.3663      -10477.423      454            48433.642      0.0096483976 
    455000  -10651.208      186.473       -10464.735      455            48536.88       0.0096863356 
    456000  -10661.519      176.0914      -10485.428      456            48639.91       0.0097058688 
    457000  -10656.045      183.43592     -10472.609      457            48743.031      0.0096973806 
    458000  -10659.693      185.01897     -10474.674      458            48845.9        0.0097211269 
    459000  -10657.545      186.08817     -10471.457      459            48948.731      0.0097246469 
    460000  -10654.462      181.21721     -10473.245      460            49051.595      0.0097216062 
    461000  -10657.08       174.08059     -10483          461            49153.485      0.0098145119 
    462000  -10663.272      180.5228      -10482.749      462            49255.421      0.0098100328 
    463000  -10665.127      185.30848     -10479.819      463            49358.073      0.0097417264 
    464000  -10668.635      180.17371     -10488.461      464            49460.958      0.0097195213 
    465000  -10652.709      181.61558     -10471.093      465            49567.451      0.0093902868 
    466000  -10658.865      178.58041     -10480.285      466            49678.311      0.00902043   
    467000  -10658.51       184.2764      -10474.234      467            49790.908      0.0088812239 
    468000  -10656.678      172.46472     -10484.213      468            49903.054      0.008916928  
    469000  -10653.416      181.07005     -10472.346      469            50011.279      0.0092399763 
    470000  -10660.184      175.11197     -10485.072      470            50118.075      0.0093636921 
    471000  -10660.088      182.77923     -10477.309      471            50223.869      0.0094523318 
    472000  -10668.907      177.77236     -10491.134      472            50328.461      0.0095609155 
    473000  -10659.125      180.25804     -10478.867      473            50432.49       0.0096127068 
    474000  -10661.953      175.58957     -10486.363      474            50536.684      0.0095974901 
    475000  -10651.944      182.49274     -10469.451      475            50640.571      0.009625911  
    476000  -10656.62       174.67695     -10481.943      476            50744.421      0.0096292493 
    477000  -10652.219      179.79254     -10472.427      477            50848.046      0.0096501956 
    478000  -10657.701      178.28819     -10479.413      478            50951.373      0.0096779643 
    479000  -10663.792      181.28708     -10482.505      479            51055.364      0.0096161933 
    480000  -10660.948      181.1922      -10479.756      480            51159.652      0.009588849  
    481000  -10656.152      184.52238     -10471.63       481            51263.984      0.0095847749 
    482000  -10659.261      178.13078     -10481.13       482            51368.469      0.0095708094 
    483000  -10658.753      180.59485     -10478.158      483            51472.496      0.0096128489 
    484000  -10669.379      171.92888     -10497.45       484            51576.704      0.0095962419 
    485000  -10652.074      175.15747     -10476.917      485            51681.181      0.009571419  
    486000  -10654.09       178.9405      -10475.149      486            51789.582      0.0092250141 
    487000  -10657.65       177.21562     -10480.434      487            51898.758      0.0091595498 
    488000  -10654.725      183.72022     -10471.005      488            52009.134      0.009059918  
    489000  -10651.501      172.6867      -10478.814      489            52119.884      0.0090293788 
    490000  -10659.887      184.56168     -10475.325      490            52230.725      0.0090219482 
    491000  -10666.653      179.00889     -10487.645      491            52341          0.009068168  
    492000  -10664.721      172.88177     -10491.839      492            52450.183      0.0091590103 
    493000  -10659.472      179.14559     -10480.326      493            52557.16       0.0093477415 
    494000  -10650.612      174.2931      -10476.319      494            52660.968      0.0096332116 
    495000  -10662.845      182.1378      -10480.707      495            52764.698      0.0096404344 
    496000  -10653.998      179.90959     -10474.088      496            52868.492      0.0096344307 
    497000  -10665.716      179.06732     -10486.648      497            52972.009      0.0096602603 
    498000  -10655.776      175.84249     -10479.934      498            53076.976      0.0095267954 
    499000  -10660.598      176.1662      -10484.432      499            53182.63       0.0094648663 
    500000  -10649.583      175.547       -10474.036      500            53289.907      0.0093216433 
    501000  -10665.788      181.17843     -10484.609      501            53399.324      0.009139349  
    502000  -10662.13       179.81224     -10482.317      502            53509.857      0.0090470797 
    503000  -10668.13       175.78335     -10492.347      503            53623.198      0.008822931  
    504000  -10657.649      183.90216     -10473.747      504            53734.098      0.0090170985 
    505000  -10655.639      186.12449     -10469.515      505            53844.859      0.0090284647 
    506000  -10657.193      180.35436     -10476.838      506            53954.211      0.0091448062 
    507000  -10661.264      177.89802     -10483.366      507            54062.791      0.0092097804 
    508000  -10649.372      181.57396     -10467.798      508            54171.84       0.0091701619 
    509000  -10664.335      178.93894     -10485.396      509            54280.398      0.0092117479 
    510000  -10643.7        177.17806     -10466.522      510            54388.592      0.0092426101 
    511000  -10667.689      182.52207     -10485.167      511            54496.082      0.0093031744 
    512000  -10652.514      182.27178     -10470.242      512            54601.899      0.009450259  
    513000  -10653.668      178.26702     -10475.401      513            54706.877      0.0095258329 
    514000  -10656.368      169.81257     -10486.555      514            54812.623      0.0094565992 
    515000  -10660.212      177.9194      -10482.293      515            54921.128      0.0092161995 
    516000  -10660.64       183.00421     -10477.636      516            55029.166      0.0092560162 
    517000  -10665.671      176.45111     -10489.219      517            55135.687      0.0093878493 
    518000  -10655.959      178.24781     -10477.711      518            55243.11       0.0093089343 
    519000  -10658.123      179.93772     -10478.185      519            55352.126      0.0091730098 
    520000  -10654.339      173.85127     -10480.487      520            55463.19       0.009003766  
    521000  -10663.086      181.38649     -10481.699      521            55572.072      0.0091843027 
    522000  -10655.915      178.69302     -10477.222      522            55680.147      0.0092527892 
    523000  -10657.141      183.41112     -10473.73       523            55789.877      0.0091133276 
    524000  -10662.079      180.2406      -10481.839      524            55901.108      0.0089902464 
    525000  -10654.263      167.44897     -10486.814      525            56010.132      0.0091723332 
    526000  -10659.151      175.75085     -10483.4        526            56118.987      0.0091864935 
    527000  -10663.771      185.91773     -10477.854      527            56230.612      0.0089585686 
    528000  -10650.236      181.94655     -10468.289      528            56345.335      0.0087166424 
    529000  -10659.755      180.63127     -10479.124      529            56454.692      0.0091443807 
    530000  -10662.828      173.62141     -10489.207      530            56568.387      0.0087954369 
    531000  -10652.084      175.83216     -10476.252      531            56678.132      0.0091120703 
    532000  -10660.942      175.65128     -10485.291      532            56786.625      0.0092172099 
    533000  -10657.403      180.44563     -10476.958      533            56893.599      0.009348046  
    534000  -10664.184      181.43203     -10482.752      534            57002.24       0.0092046308 
    535000  -10657.614      187.2287      -10470.386      535            57110.58       0.0092302209 
    536000  -10659.031      180.93004     -10478.101      536            57218.147      0.0092964604 
    537000  -10654.171      180.84843     -10473.322      537            57328.041      0.009099701  
    538000  -10658.177      179.76505     -10478.412      538            57434.264      0.0094141373 
    539000  -10652.321      185.49104     -10466.83       539            57540.285      0.0094321438 
    540000  -10662.269      172.84928     -10489.42       540            57646.496      0.0094152286 
    541000  -10663.6        178.24807     -10485.352      541            57753.987      0.0093031215 
    542000  -10653.687      169.99146     -10483.695      542            57859.355      0.0094905502 
    543000  -10658.597      178.99275     -10479.604      543            57965.28       0.0094405999 
    544000  -10662.303      182.87081     -10479.432      544            58070.147      0.0095358589 
    545000  -10652.672      183.81468     -10468.858      545            58176.398      0.0094117215 
    546000  -10650.33       178.59651     -10471.734      546            58279.353      0.0097129194 
    547000  -10659.45       181.95308     -10477.497      547            58381.42       0.0097974982 
    548000  -10663.669      177.8809      -10485.788      548            58482.857      0.0098583341 
    549000  -10656.04       176.6501      -10479.39       549            58585.047      0.0097857651 
    550000  -10658.91       170.39764     -10488.513      550            58687.003      0.0098081024 
    551000  -10654.233      185.07421     -10469.158      551            58789.232      0.0097819535 
    552000  -10665.554      172.10067     -10493.453      552            58891.101      0.0098165165 
    553000  -10660.519      180.98799     -10479.531      553            58992.712      0.0098415337 
    554000  -10661.363      180.875       -10480.488      554            59094.786      0.009796807  
    555000  -10653.034      183.10696     -10469.927      555            59196.772      0.0098052408 
    556000  -10652.667      180.12854     -10472.539      556            59298.678      0.009812924  
    557000  -10660.414      177.87798     -10482.536      557            59400.687      0.0098030803 
    558000  -10652.788      177.29241     -10475.496      558            59502.123      0.0098584405 
    559000  -10658.267      177.04095     -10481.226      559            59603.66       0.0098486498 
    560000  -10649.183      184.82293     -10464.36       560            59705.07       0.0098608884 
    561000  -10653.343      168.29567     -10485.047      561            59805.974      0.0099104827 
    562000  -10654.844      178.48107     -10476.363      562            59906.921      0.0099061802 
    563000  -10664.849      177.19182     -10487.657      563            60010.323      0.0096709981 
    564000  -10660.61       186.02911     -10474.581      564            60117.654      0.0093169885 
    565000  -10656.111      169.02879     -10487.083      565            60223.735      0.0094267429 
    566000  -10658.172      179.22583     -10478.946      566            60327.422      0.0096443927 
    567000  -10667.234      177.42693     -10489.807      567            60429.327      0.0098130208 
    568000  -10661.95       184.42761     -10477.522      568            60530.945      0.009840794  
    569000  -10655.701      174.64478     -10481.057      569            60632.324      0.0098639633 
    570000  -10664.583      175.26729     -10489.316      570            60733.332      0.0099002743 
    571000  -10653.683      177.19889     -10476.484      571            60835.497      0.0097880727 
    572000  -10666.295      174.30804     -10491.987      572            60937.114      0.0098408277 
    573000  -10652.183      176.8068      -10475.376      573            61038.429      0.0098702733 
    574000  -10660.015      177.05483     -10482.96       574            61139.28       0.0099155437 
    575000  -10662.8        172.53149     -10490.268      575            61240.365      0.0098927331 
    576000  -10662.093      183.06145     -10479.032      576            61343.332      0.0097117934 
    577000  -10663.026      185.95431     -10477.072      577            61451.24       0.009267171  
    578000  -10666.407      181.12033     -10485.286      578            61557.841      0.0093807528 
    579000  -10656.535      181.82133     -10474.714      579            61662.934      0.0095154444 
    580000  -10657.602      180.50849     -10477.094      580            61767.295      0.0095820822 
    581000  -10664.503      176.93365     -10487.57       581            61870.614      0.0096787958 
    582000  -10659.901      175.72461     -10484.176      582            61972.111      0.009852492  
    583000  -10655.726      175.69361     -10480.032      583            62073.98       0.0098165352 
    584000  -10652.054      178.92514     -10473.129      584            62175.186      0.0098807751 
    585000  -10660.387      181.30225     -10479.085      585            62276.655      0.0098552776 
    586000  -10650.537      182.31241     -10468.224      586            62377.9        0.0098770128 
    587000  -10651.994      179.41581     -10472.578      587            62479.084      0.0098830279 
    588000  -10660.834      174.15308     -10486.681      588            62578.948      0.010013554  
    589000  -10660.671      179.82474     -10480.846      589            62679.088      0.0099860524 
    590000  -10662.315      181.09566     -10481.22       590            62779.438      0.0099651386 
    591000  -10660.377      176.13734     -10484.24       591            62880.046      0.0099395202 
    592000  -10655.338      178.90647     -10476.431      592            62981.084      0.0098972827 
    593000  -10667.457      179.20056     -10488.256      593            63082.666      0.0098443003 
    594000  -10664.886      180.2817      -10484.605      594            63185.102      0.0097621585 
    595000  -10649.212      180.11272     -10469.1        595            63288.426      0.0096782654 
    596000  -10656.587      183.81525     -10472.772      596            63390.915      0.0097571744 
    597000  -10654.246      175.42816     -10478.818      597            63493.58       0.0097404325 
    598000  -10653.458      176.77831     -10476.68       598            63595.62       0.0098001098 
    599000  -10654.939      181.95161     -10472.988      599            63697.409      0.0098242163 
    600000  -10650.826      170.15056     -10480.676      600            63799.293      0.0098150863 
    601000  -10649.687      178.2825      -10471.405      601            63900.891      0.0098427171 
    602000  -10658.19       175.84578     -10482.344      602            64002.495      0.0098421382 
    603000  -10657.61       177.05798     -10480.552      603            64104.726      0.0097817578 
    604000  -10661.007      179.28297     -10481.724      604            64206.057      0.0098686707 
    605000  -10658.517      178.60003     -10479.917      605            64307.415      0.0098660139 
    606000  -10652.147      184.33343     -10467.813      606            64409.39       0.0098063223 
    607000  -10655.53       176.75484     -10478.775      607            64511.588      0.0097849226 
    608000  -10660.392      181.3894      -10479.002      608            64612.901      0.0098704039 
    609000  -10652.318      183.63668     -10468.681      609            64714.668      0.0098263608 
    610000  -10658.695      179.12659     -10479.568      610            64816.654      0.0098052347 
    611000  -10655.484      179.85523     -10475.629      611            64921.469      0.0095406549 
    612000  -10667.329      175.67423     -10491.655      612            65028.904      0.0093079708 
    613000  -10656.746      179.25459     -10477.492      613            65140.219      0.0089835057 
    614000  -10662.127      175.25017     -10486.877      614            65246.598      0.0094003641 
    615000  -10661.584      182.85972     -10478.725      615            65350.38       0.0096355772 
    616000  -10666.847      181.80272     -10485.044      616            65452.862      0.0097578123 
    617000  -10653.2        180.96834     -10472.231      617            65554.796      0.0098102293 
    618000  -10658.307      179.11665     -10479.19       618            65656.56       0.0098266603 
    619000  -10657.574      178.34113     -10479.233      619            65758.232      0.0098355848 
    620000  -10662.283      175.64383     -10486.639      620            65860.098      0.009816808  
    621000  -10653.35       183.63319     -10469.717      621            65961.994      0.0098139047 
    622000  -10656.847      172.82241     -10484.025      622            66063.931      0.0098099824 
    623000  -10665.856      178.07506     -10487.781      623            66166.444      0.0097548385 
    624000  -10657.942      174.03551     -10483.906      624            66268.852      0.0097648879 
    625000  -10654.239      172.20874     -10482.03       625            66370.999      0.0097898264 
    626000  -10662.589      172.94583     -10489.644      626            66474.656      0.0096471437 
    627000  -10654.408      174.72166     -10479.686      627            66581.122      0.0093926842 
    628000  -10662.837      178.13596     -10484.701      628            66686.136      0.0095225807 
    629000  -10661.705      183.2038      -10478.502      629            66793.776      0.009290169  
    630000  -10661.904      176.28239     -10485.621      630            66902.98       0.0091572112 
    631000  -10659.124      175.30492     -10483.819      631            67013.109      0.0090802569 
    632000  -10663.652      177.26845     -10486.384      632            67119.661      0.0093851246 
    633000  -10659.96       180.1879      -10479.772      633            67223.803      0.0096022422 
    634000  -10658.884      186.76643     -10472.117      634            67327.117      0.009679217  
    635000  -10662.436      177.68728     -10484.749      635            67429.944      0.0097250499 
    636000  -10658.04       184.88462     -10473.155      636            67534.901      0.009527769  
    637000  -10658.335      179.83985     -10478.496      637            67638.036      0.009696033  
    638000  -10659.83       178.23329     -10481.597      638            67741.257      0.0096878964 
    639000  -10659.857      189.05306     -10470.804      639            67844.176      0.0097163824 
    640000  -10656.877      176.45247     -10480.424      640            67947.219      0.0097047268 
    641000  -10662.769      181.21752     -10481.552      641            68049.992      0.0097301351 
    642000  -10663.235      175.80966     -10487.426      642            68152.849      0.0097222426 
    643000  -10659.817      185.77446     -10474.043      643            68255.608      0.009731558  
    644000  -10668.632      171.59211     -10497.04       644            68357.349      0.0098288492 
    645000  -10653.637      178.75222     -10474.885      645            68458.542      0.0098820917 
    646000  -10661.355      184.2843      -10477.071      646            68559.765      0.0098792032 
    647000  -10660.058      169.98182     -10490.076      647            68661.502      0.0098292691 
    648000  -10656.853      190.81693     -10466.036      648            68763.923      0.0097636239 
    649000  -10656.369      174.51199     -10481.857      649            68866.686      0.0097311345 
    650000  -10657.656      179.5356      -10478.12       650            68970.066      0.0096730499 
    651000  -10658.562      181.62238     -10476.94       651            69072.957      0.0097189674 
    652000  -10651.964      178.74521     -10473.219      652            69175.575      0.0097449226 
    653000  -10660.605      179.83061     -10480.774      653            69278.363      0.009728779  
    654000  -10651.819      178.30113     -10473.517      654            69381.693      0.0096777295 
    655000  -10653.436      175.32429     -10478.112      655            69483.899      0.0097841319 
    656000  -10660.369      177.96398     -10482.405      656            69586.071      0.0097874473 
    657000  -10656.523      186.1187      -10470.405      657            69688.482      0.0097645919 
    658000  -10658.283      175.34232     -10482.94       658            69790.104      0.0098403129 
    659000  -10661.966      178.82093     -10483.145      659            69891.716      0.0098414245 
    660000  -10657.093      181.87453     -10475.219      660            69993.106      0.0098629134 
    661000  -10654.9        174.15939     -10480.741      661            70094.754      0.0098378089 
    662000  -10659.749      177.33335     -10482.416      662            70196.427      0.0098354273 
    663000  -10652.48       184.18833     -10468.292      663            70297.621      0.0098820976 
    664000  -10662.465      183.00042     -10479.464      664            70398.104      0.0099519352 
    665000  -10658.464      177.31448     -10481.15       665            70500.637      0.0097529135 
    666000  -10662.112      181.60685     -10480.505      666            70602.852      0.0097833281 
    667000  -10657.34       177.3089      -10480.031      667            70704.861      0.0098030116 
    668000  -10663.831      182.14663     -10481.685      668            70807.273      0.0097644616 
    669000  -10657.908      180.03175     -10477.876      669            70910.481      0.0096892166 
    670000  -10663.619      176.02603     -10487.593      670            71012.786      0.0097746498 
    671000  -10647.085      187.96282     -10459.122      671            71115.339      0.0097510869 
    672000  -10657.164      176.86316     -10480.301      672            71218.205      0.0097214305 
    673000  -10653.109      183.44428     -10469.664      673            71322.041      0.0096304942 
    674000  -10657.16       174.53469     -10482.625      674            71426.375      0.0095846108 
    675000  -10647.206      177.59166     -10469.614      675            71530.33       0.0096195362 
    676000  -10657.803      176.63016     -10481.173      676            71633.573      0.0096859276 
    677000  -10646.366      185.37909     -10460.986      677            71737.228      0.0096473539 
    678000  -10660.354      181.55392     -10478.8        678            71840.898      0.0096459935 
    679000  -10654.171      181.06037     -10473.111      679            71944.271      0.0096737051 
    680000  -10654.465      176.79128     -10477.674      680            72047.572      0.0096804416 
    681000  -10662.261      179.50038     -10482.761      681            72150.618      0.009704422  
    682000  -10649.754      181.40542     -10468.349      682            72252.879      0.0097789387 
    683000  -10655.152      176.81727     -10478.335      683            72354.873      0.0098044391 
    684000  -10658.512      186.78542     -10471.727      684            72457.145      0.009777883  
    685000  -10653.243      178.76262     -10474.48       685            72559.853      0.009736314  
    686000  -10657.655      169.37815     -10488.277      686            72662.434      0.0097484306 
    687000  -10666.457      186.60565     -10479.851      687            72765.383      0.0097134955 
    688000  -10660.707      184.5473      -10476.159      688            72868.573      0.0096909315 
    689000  -10664.535      175.56823     -10488.967      689            72971.743      0.0096926705 
    690000  -10655.415      180.10281     -10475.312      690            73074.871      0.0096967613 
    691000  -10674.309      175.5641      -10498.745      691            73177.475      0.0097462261 
    692000  -10654.066      185.73741     -10468.329      692            73280.022      0.0097515769 
    693000  -10660.983      178.30555     -10482.678      693            73382.58       0.0097505388 
    694000  -10659.004      180.16035     -10478.844      694            73484.875      0.0097756568 
    695000  -10657.53       181.39071     -10476.139      695            73586.822      0.0098090152 
    696000  -10660.316      178.12503     -10482.191      696            73689.242      0.0097637111 
    697000  -10646.264      182.95406     -10463.31       697            73791.371      0.009791603  
    698000  -10660.061      178.93951     -10481.122      698            73893.574      0.0097844169 
    699000  -10640.776      180.77702     -10459.999      699            73996.19       0.009745129  
    700000  -10660.386      178.34936     -10482.037      700            74099.402      0.0096887153 
    701000  -10655.926      184.09705     -10471.829      701            74202.921      0.0096600754 
    702000  -10661.644      170.47439     -10491.17       702            74306.543      0.0096504498 
    703000  -10653.883      175.63673     -10478.246      703            74409.806      0.0096840272 
    704000  -10652.001      181.71787     -10470.284      704            74514.285      0.0095713457 
    705000  -10661.091      175.8997      -10485.191      705            74617.028      0.0097330387 
    706000  -10658.515      186.38147     -10472.134      706            74719.553      0.0097536795 
    707000  -10645.247      176.23999     -10469.007      707            74822.166      0.0097453114 
    708000  -10657.008      171.21039     -10485.798      708            74925.062      0.0097186109 
    709000  -10656.827      185.11756     -10471.71       709            75027.122      0.0097981403 
    710000  -10663.819      184.35367     -10479.465      710            75129.832      0.0097361608 
    711000  -10656.453      179.20051     -10477.253      711            75232.973      0.0096954732 
    712000  -10660.492      173.72807     -10486.764      712            75337.024      0.0096106678 
    713000  -10658.48       180.80438     -10477.675      713            75441.094      0.0096089339 
    714000  -10653.279      175.71031     -10477.569      714            75544.476      0.0096728564 
    715000  -10654.429      171.08159     -10483.347      715            75646.784      0.0097744114 
    716000  -10658.683      179.36247     -10479.321      716            75749.343      0.009750421  
    717000  -10657.897      180.49864     -10477.398      717            75851.975      0.0097435464 
    718000  -10656.234      180.10847     -10476.125      718            75954.98       0.0097083016 
    719000  -10666.116      183.03796     -10483.078      719            76057.934      0.0097130328 
    720000  -10663.281      178.52569     -10484.755      720            76161.288      0.0096754975 
    721000  -10646.998      170.86764     -10476.13       721            76265.535      0.0095926112 
    722000  -10659.608      181.23307     -10478.375      722            76377.839      0.0089044131 
    723000  -10660.164      179.19877     -10480.965      723            76488.125      0.0090673174 
    724000  -10655.094      179.51647     -10475.578      724            76595.016      0.0093553438 
    725000  -10652.507      176.07525     -10476.431      725            76701.867      0.0093588402 
    726000  -10661.647      174.61846     -10487.028      726            76809.785      0.0092663129 
    727000  -10651.529      180.93994     -10470.589      727            76915.435      0.0094651511 
    728000  -10662.228      183.50431     -10478.724      728            77018.919      0.0096633319 
    729000  -10662.643      171.8699      -10490.773      729            77122.484      0.0096558491 
    730000  -10654.847      174.95208     -10479.895      730            77225.269      0.0097290199 
    731000  -10652.634      169.47338     -10483.161      731            77327.806      0.0097525927 
    732000  -10659.9        172.87281     -10487.027      732            77430.27       0.0097595023 
    733000  -10655.81       175.21366     -10480.596      733            77532.437      0.0097878856 
    734000  -10666.642      180.4354      -10486.206      734            77634.722      0.0097765627 
    735000  -10663.773      178.71952     -10485.053      735            77736.729      0.0098033247 
    736000  -10652.171      183.80609     -10468.365      736            77839.297      0.0097495775 
    737000  -10660.979      176.73144     -10484.248      737            77942.277      0.0097106728 
    738000  -10659.125      181.55605     -10477.569      738            78045.818      0.0096579689 
    739000  -10656.139      178.28792     -10477.851      739            78147.843      0.0098015179 
    740000  -10657.526      181.07391     -10476.452      740            78249.492      0.0098378106 
    741000  -10663.43       172.23876     -10491.192      741            78352.468      0.0097110062 
    742000  -10658.907      178.05241     -10480.855      742            78457.998      0.0094759125 
    743000  -10664.221      179.75168     -10484.469      743            78566.816      0.0091896699 
    744000  -10653.205      179.99471     -10473.211      744            78673.534      0.0093705328 
    745000  -10661.151      177.93478     -10483.216      745            78779.823      0.0094082777 
    746000  -10661.027      180.70873     -10480.318      746            78884.888      0.0095179223 
    747000  -10658.029      172.8562      -10485.173      747            78986.373      0.0098536667 
[...]
    888000  -10659.609      179.14644     -10480.463      888            93509.456      0.0099976611 
    889000  -10661.163      178.9942      -10482.169      889            93609.75       0.0099707236 
    890000  -10658.226      178.78403     -10479.442      890            93710.361      0.0099392825 
    891000  -10658.409      176.19611     -10482.213      891            93811.204      0.0099163454 
    892000  -10653.205      185.10246     -10468.102      892            93912.698      0.0098528159 
    893000  -10662.082      174.71768     -10487.365      893            94015.317      0.0097447708 
    894000  -10661.617      179.46945     -10482.148      894            94117.436      0.0097925054 
    895000  -10654.561      176.63728     -10477.924      895            94218.76       0.0098693282 
    896000  -10656.982      177.95773     -10479.025      896            94321.28       0.0097542524 
    897000  -10668.917      174.72361     -10494.194      897            94422.628      0.0098669231 
    898000  -10660.721      183.91343     -10476.808      898            94524.225      0.0098428767 
    899000  -10661.913      172.70013     -10489.213      899            94626.51       0.009776613  
    900000  -10659.461      179.89368     -10479.567      900            94728.861      0.0097702837 
    901000  -10660.683      173.81048     -10486.872      901            94831.721      0.0097219743 
    902000  -10661.821      178.39303     -10483.428      902            94934.744      0.0097064998 
    903000  -10655.771      180.66465     -10475.106      903            95037.1        0.0097698592 
    904000  -10663.94       177.87942     -10486.06       904            95138.96       0.0098174306 
    905000  -10656.341      183.25696     -10473.084      905            95241.017      0.0097983927 
    906000  -10660.967      182.74488     -10478.222      906            95343.066      0.0097992532 
    907000  -10666.194      180.89358     -10485.301      907            95445.488      0.0097635281 
    908000  -10657.506      182.83187     -10474.674      908            95547.956      0.0097591349 
    909000  -10662.342      177.37066     -10484.971      909            95650.839      0.0097197468 
    910000  -10664.567      175.17791     -10489.39       910            95754.531      0.00964398   
    911000  -10662.024      180.80266     -10481.221      911            95857.212      0.0097389189 
    912000  -10656.938      180.47292     -10476.465      912            95960.765      0.0096568486 
    913000  -10661.759      175.22386     -10486.535      913            96069.914      0.0091618156 
    914000  -10647.413      175.45503     -10471.958      914            96178.076      0.0092453933 
    915000  -10660.948      177.48681     -10483.462      915            96285.694      0.009292067  
    916000  -10660.539      178.9486      -10481.591      916            96391.801      0.009424456  
    917000  -10660.573      183.91634     -10476.657      917            96500.59       0.0091921516 
    918000  -10659.435      180.48161     -10478.953      918            96609.335      0.0091957888 
    919000  -10653.081      174.86373     -10478.217      919            96719.723      0.0090589337 
    920000  -10659.667      174.08002     -10485.587      920            96828.39       0.0092024592 
    921000  -10653.841      180.18943     -10473.652      921            96933.813      0.0094856185 
    922000  -10654.851      170.28674     -10484.564      922            97037.417      0.0096520983 
    923000  -10657.287      183.41986     -10473.867      923            97139.408      0.0098047771 
    924000  -10665.577      173.08059     -10492.496      924            97240.752      0.0098674506 
    925000  -10658.893      181.49622     -10477.397      925            97343.263      0.0097550553 
    926000  -10660.544      177.05612     -10483.487      926            97445.73       0.0097591599 
    927000  -10662.148      179.67396     -10482.474      927            97548.303      0.0097492222 
    928000  -10652.292      178.84681     -10473.445      928            97650.924      0.009744516  
    929000  -10665.009      178.67099     -10486.338      929            97752.971      0.0097994957 
    930000  -10650.683      179.26479     -10471.418      930            97854.429      0.0098562339 
    931000  -10648.693      174.77164     -10473.922      931            97955.911      0.0098539793 
    932000  -10663.144      177.77723     -10485.367      932            98057.161      0.0098765085 
    933000  -10656.066      177.55893     -10478.507      933            98159.307      0.0097898957 
    934000  -10661.918      175.07644     -10486.842      934            98261.508      0.0097846504 
    935000  -10659.213      176.28482     -10482.928      935            98364.241      0.0097340315 
    936000  -10659.354      171.34695     -10488.007      936            98466.883      0.0097425931 
    937000  -10654.652      181.23375     -10473.418      937            98568.944      0.0097980273 
    938000  -10656.818      174.59777     -10482.221      938            98671.786      0.0097236305 
    939000  -10661.388      178.83827     -10482.549      939            98773.716      0.0098107307 
    940000  -10652.348      174.23548     -10478.112      940            98875.914      0.0097848821 
    941000  -10663.184      181.072       -10482.112      941            98979.367      0.0096662577 
    942000  -10659.265      176.4375      -10482.828      942            99082.877      0.0096609196 
    943000  -10657.544      183.11658     -10474.428      943            99186.638      0.0096375255 
    944000  -10653.063      171.52136     -10481.542      944            99290.44       0.0096336638 
    945000  -10657.214      175.49266     -10481.721      945            99393.437      0.0097090898 
    946000  -10657.241      179.07631     -10478.164      946            99496.06       0.009744405  
    947000  -10653.635      182.52475     -10471.11       947            99599.312      0.0096849575 
    948000  -10659.142      176.81156     -10482.33       948            99702.775      0.0096653469 
    949000  -10649.336      176.17668     -10473.159      949            99804.865      0.0097952741 
    950000  -10659.977      176.88894     -10483.088      950            99907.31       0.0097613166 
    951000  -10661.555      185.17771     -10476.377      951            100009.42      0.0097933139 
    952000  -10662.115      172.37855     -10489.736      952            100111.99      0.0097494259 
    953000  -10654.387      182.25185     -10472.135      953            100214.36      0.009768405  
    954000  -10656.152      175.22149     -10480.931      954            100316.25      0.0098145263 
    955000  -10648.465      177.78767     -10470.678      955            100418.4       0.009789836  
    956000  -10657.35       177.72848     -10479.621      956            100521.06      0.0097403557 
    957000  -10669.485      176.05694     -10493.428      957            100623.8       0.0097338708 
    958000  -10660.438      181.86054     -10478.578      958            100726.06      0.0097790609 
    959000  -10661.12       175.86844     -10485.252      959            100827.17      0.0098899002 
    960000  -10655.065      180.28602     -10474.778      960            100928.69      0.0098498878 
    961000  -10662.236      179.61467     -10482.621      961            101029.9       0.0098804488 
    962000  -10658.632      172.66045     -10485.971      962            101132.58      0.0097390608 
    963000  -10652.842      173.46893     -10479.373      963            101235.01      0.0097626419 
    964000  -10663.186      172.13246     -10491.053      964            101336.78      0.0098267904 
    965000  -10668.7        181.98023     -10486.72       965            101438.81      0.0098008554 
    966000  -10655.989      178.90088     -10477.089      966            101539.93      0.0098892168 
    967000  -10655.275      171.48033     -10483.795      967            101640.87      0.0099065701 
    968000  -10654.279      180.23523     -10474.044      968            101741.73      0.0099147967 
    969000  -10662.649      174.21872     -10488.43       969            101842.75      0.009899445  
    970000  -10666.711      179.27505     -10487.436      970            101943.54      0.0099218833 
    971000  -10655.93       173.2144      -10482.716      971            102042.95      0.010058749  
    972000  -10661.035      178.50688     -10482.528      972            102142.87      0.010007885  
    973000  -10662.658      172.4176      -10490.241      973            102242.01      0.010087117  
    974000  -10658.125      174.85586     -10483.27       974            102341.33      0.010068267  
    975000  -10657.948      180.60096     -10477.348      975            102441.04      0.010029523  
    976000  -10655.503      183.65564     -10471.847      976            102539.64      0.010141151  
    977000  -10660.985      168.85845     -10492.127      977            102638.07      0.010159726  
    978000  -10657.011      179.38064     -10477.631      978            102736.18      0.010193295  
    979000  -10661.816      174.99793     -10486.818      979            102835.23      0.010095108  
    980000  -10660.883      179.42007     -10481.463      980            102933.69      0.010156768  
    981000  -10652.403      176.25699     -10476.146      981            103034.72      0.0098979453 
    982000  -10660.504      175.81188     -10484.692      982            103135.05      0.0099675433 
    983000  -10651.858      169.22364     -10482.634      983            103234.02      0.010103888  
    984000  -10653.116      178.71995     -10474.396      984            103331.26      0.010283504  
    985000  -10653.832      177.75606     -10476.076      985            103428.43      0.010291978  
    986000  -10664.955      175.35738     -10489.597      986            103525.28      0.01032445   
    987000  -10657.973      181.48896     -10476.484      987            103621.99      0.010340305  
    988000  -10656.349      175.13206     -10481.217      988            103718.5       0.01036205   
    989000  -10661.766      177.415       -10484.351      989            103814.73      0.010391839  
    990000  -10651.323      177.60994     -10473.713      990            103911.29      0.010355647  
    991000  -10661.361      179.49404     -10481.867      991            104007.67      0.010375592  
    992000  -10654.855      174.36104     -10480.494      992            104104.07      0.010374003  
    993000  -10659.824      179.52599     -10480.298      993            104200.61      0.010357736  
    994000  -10659.449      187.52313     -10471.926      994            104297.48      0.010323317  
    995000  -10666.666      179.70287     -10486.963      995            104394.93      0.010261427  
    996000  -10646.273      177.84093     -10468.432      996            104491.81      0.010322858  
    997000  -10659.339      178.34832     -10480.991      997            104588.59      0.010332267  
    998000  -10653.906      176.88328     -10477.023      998            104686.46      0.01021785   
    999000  -10651.692      177.0572      -10474.635      999            104786.4       0.010005844  
   1000000  -10658.729      171.14031     -10487.589      1000           104887.4       0.0099013488 
Loop time of 104887 on 16 procs for 1000000 steps with 1152 atoms

Performance: 0.824 ns/day, 29.135 hours/ns, 9.534 timesteps/s, 10.983 katom-step/s
99.5% CPU use with 16 MPI tasks x 1 OpenMP threads

MPI task timing breakdown:
Section |  min time  |  avg time  |  max time  |%varavg| %total
---------------------------------------------------------------
Pair    | 20419      | 29500      | 31427      |1553.3 | 28.13
Neigh   | 237.4      | 334.51     | 363.02     | 166.4 |  0.32
Comm    | 1956.5     | 3942.4     | 13026      |4261.6 |  3.76
Output  | 762.64     | 762.64     | 762.72     |   0.1 |  0.73
Modify  | 70182      | 70340      | 70468      |  33.7 | 67.06
Other   |            | 7.391      |            |       |  0.01

Nlocal:             72 ave          82 max          62 min
Histogram: 1 1 0 2 3 3 3 0 2 1
Nghost:        835.188 ave         899 max         772 min
Histogram: 2 1 1 1 5 1 1 1 0 3
Neighs:              0 ave           0 max           0 min
Histogram: 16 0 0 0 0 0 0 0 0 0
FullNghs:         5178 ave        6243 max        4346 min
Histogram: 2 0 3 2 2 3 2 1 0 1

Total # of neighbors = 82848
Ave neighs/atom = 71.916667
Neighbor list builds = 2000000
Dangerous builds = 0

unfix temp

min_style cg
fix 0 all box/relax aniso 0 vmax 0.001
minimize 0 0 100000 100000
Per MPI rank memory allocation (min/avg/max) = 5.533 | 5.539 | 5.543 Mbytes
   Step         PotEng         KinEng         TotEng          Time           CPU           T/CPU     
   1000000  -10658.729      171.14031     -10487.589      1000           0              0            
   1001000  -10851.011      171.14031     -10679.871      1001           48.800793      0.02049147   
   1002000  -10853.953      171.14031     -10682.813      1002           115.77249      0.014931682  
   1003000  -10853.971      171.14031     -10682.83       1003           187.61074      0.013920161  
   1004000  -10854.012      171.14031     -10682.872      1004           259.93996      0.01382567   
   1005000  -10854.032      171.14031     -10682.892      1005           332.08705      0.013860573  
   1006000  -10854.039      171.14031     -10682.899      1006           403.93712      0.013917871  
   1007000  -10854.04       171.14031     -10682.9        1007           475.86876      0.013902088  
   1008000  -10854.04       171.14031     -10682.9        1008           547.84941      0.013892622  
   1009000  -10854.04       171.14031     -10682.9        1009           619.82418      0.013893758  
   1010000  -10854.04       171.14031     -10682.9        1010           691.97145      0.013860537  
   1011000  -10854.04       171.14031     -10682.9        1011           763.98334      0.013886596  
   1012000  -10854.04       171.14031     -10682.9        1012           835.98321      0.013888914  
   1013000  -10854.04       171.14031     -10682.9        1013           907.91845      0.013901392  
   1014000  -10854.04       171.14031     -10682.9        1014           980.0031       0.013872579  
   1015000  -10854.04       171.14031     -10682.9        1015           1051.9785      0.01389363   
   1016000  -10854.04       171.14031     -10682.9        1016           1123.9418      0.01389597   
   1017000  -10854.04       171.14031     -10682.9        1017           1196.061       0.01386594   
   1018000  -10854.04       171.14031     -10682.9        1018           1268.1142      0.013878645  
   1019000  -10854.04       171.14031     -10682.9        1019           1340.2944      0.013854211  
   1020000  -10854.04       171.14031     -10682.9        1020           1412.1507      0.013916662  
   1021000  -10854.04       171.14031     -10682.9        1021           1484.0065      0.013916753  
   1022000  -10854.04       171.14031     -10682.9        1022           1556.0127      0.013887708  
   1023000  -10854.04       171.14031     -10682.9        1023           1628.0954      0.013872953  
   1024000  -10854.04       171.14031     -10682.9        1024           1700.1596      0.01387651   
   1025000  -10854.04       171.14031     -10682.9        1025           1772.1415      0.013892375  
   1026000  -10854.04       171.14031     -10682.9        1026           1844.2063      0.013876397  
   1027000  -10854.04       171.14031     -10682.9        1027           1916.3449      0.01386221   
   1028000  -10854.04       171.14031     -10682.9        1028           1988.4643      0.013865891  
   1029000  -10854.04       171.14031     -10682.9        1029           2060.5856      0.01386553   
   1030000  -10854.04       171.14031     -10682.9        1030           2132.5501      0.013895744  
   1031000  -10854.04       171.14031     -10682.9        1031           2204.567       0.013885638  
   1032000  -10854.04       171.14031     -10682.9        1032           2276.4295      0.013915458  
   1033000  -10854.04       171.14031     -10682.9        1033           2348.2928      0.0139153    
   1034000  -10854.04       171.14031     -10682.9        1034           2420.0626      0.013933446  
   1035000  -10854.04       171.14031     -10682.9        1035           2492.0622      0.013888955  
   1036000  -10854.04       171.14031     -10682.9        1036           2563.7768      0.013944163  
   1037000  -10854.04       171.14031     -10682.9        1037           2635.4756      0.013947239  
   1038000  -10854.04       171.14031     -10682.9        1038           2707.2333      0.013935782  
   1039000  -10854.04       171.14031     -10682.9        1039           2779.1197      0.013910843  
   1040000  -10854.04       171.14031     -10682.9        1040           2850.9447      0.013922736  
   1041000  -10854.04       171.14031     -10682.9        1041           2922.7325      0.013929934  
   1042000  -10854.04       171.14031     -10682.9        1042           2994.8613      0.0138641    
   1043000  -10854.04       171.14031     -10682.9        1043           3066.7802      0.013904546  
   1044000  -10854.04       171.14031     -10682.9        1044           3138.8386      0.013877628  
   1045000  -10854.04       171.14031     -10682.9        1045           3210.8438      0.013887893  
   1046000  -10854.04       171.14031     -10682.9        1046           3282.6367      0.013928944  
   1047000  -10854.04       171.14031     -10682.9        1047           3354.5126      0.013912876  
   1048000  -10854.04       171.14031     -10682.9        1048           3426.0311      0.013982401  
   1049000  -10854.04       171.14031     -10682.9        1049           3497.9286      0.013908687  
   1050000  -10854.04       171.14031     -10682.9        1050           3569.6977      0.013933573  
   1050373  -10854.04       171.14031     -10682.9        1050.373       3596.5844      0.013873011  
Loop time of 3596.58 on 16 procs for 50373 steps with 1152 atoms

99.6% CPU use with 16 MPI tasks x 1 OpenMP threads

Minimization stats:
  Stopping criterion = max force evaluations
  Energy initial, next-to-last, final = 
     -10658.7288592255  -10854.0404640463  -10854.0404640463
  Force two-norm initial, final = 378.61692 3.74506e-11
  Force max component initial, final = 219.06254 3.0394988e-11
  Final line search alpha, max atom move = 1 3.0394988e-11
  Iterations, force evaluations = 50373 100000

MPI task timing breakdown:
Section |  min time  |  avg time  |  max time  |%varavg| %total
---------------------------------------------------------------
Pair    | 1770.5     | 2631.1     | 3576.7     | 902.4 | 73.16
Neigh   | 0.00071839 | 0.00092669 | 0.0011786  |   0.0 |  0.00
Comm    | 5.7653     | 516.95     | 1584.3     |2167.6 | 14.37
Output  | 0.004459   | 0.004933   | 0.010766   |   2.1 |  0.00
Modify  | 0          | 0          | 0          |   0.0 |  0.00
Other   |            | 448.5      |            |       | 12.47

Nlocal:             72 ave          89 max          60 min
Histogram: 3 0 0 3 7 1 0 0 1 1
Nghost:        895.375 ave         937 max         847 min
Histogram: 6 0 0 0 0 2 0 0 3 5
Neighs:              0 ave           0 max           0 min
Histogram: 16 0 0 0 0 0 0 0 0 0
FullNghs:      5224.88 ave        6808 max        4151 min
Histogram: 3 0 1 4 5 1 0 0 0 2

Total # of neighbors = 83598
Ave neighs/atom = 72.567708
Neighbor list builds = 3
Dangerous builds = 0

write_data data.CSRO
System init for write_data ...

print "all done"
all done
Total wall time: 30:08:04
