LAMMPS data file via write_data, version 22 Dec 2022, timestep = 1050324

1152 atoms
5 atom types

0.0033907001349725843 14.776144550690814 xlo xhi
-0.00047069800152942256 15.67653509596694 ylo yhi
0.011439870040782755 68.25230937445993 zlo zhi

Masses

1 180.948
2 92.9064
3 50.9415
4 95.94
5 183.84

Atoms # atomic

436 3 3.045786935689552 2.4676487829625637 3.240743339734674 3 1 1
455 3 0.588213256105266 1.599862655561708 3.245028880554438 3 1 1
434 3 1.8022503991576773 0.767609273497816 1.1520274689279164 3 1 1
461 3 1.8062152366163033 3.361329559512016 1.0988649284495362 3 1 1
505 3 5.4856764525515365 3.347351693806759 3.2603071219930766 2 1 1
488 3 5.486562337346941 0.7028586210999257 3.254275604191056 2 1 1
495 2 6.708762802022784 2.4738681284541295 1.079975560037034 2 1 1
441 3 4.215863418861556 1.6094463437809716 1.127452806379974 3 1 1
496 3 7.983045926238526 1.5705626779319415 3.2543690478214327 2 1 1
473 3 10.42923902130399 2.4639580272236157 3.2241039165522687 2 1 1
502 3 9.214351074823524 3.363032501826463 1.0810876044148328 2 1 1
471 3 9.155420171085705 0.7147368180530391 1.0908530130931062 2 1 1
479 3 11.64328819170455 1.662276657881303 1.107850724380336 2 1 1
447 3 12.91078757346161 0.7510311762832917 3.2604051981303575 2 1 1
481 3 12.88846632110735 3.327487654945724 3.237743477283914 2 1 1
454 3 14.123084550499845 2.4908344670478364 1.116328213937617 2 1 1
1016 3 14.09280423020666 7.675474628068791 5.337221655015948 2 1 1
456 3 0.5852295991843548 4.201520630919253 3.218931452102094 3 1 1
462 3 3.0386646497077003 5.06887517098071 3.184114182811409 3 1 1
1020 3 0.5763959429607243 6.8078585264132565 3.1934712436943995 3 1 1
1008 3 1.8091661064974698 5.951981716468568 1.078854281877447 3 1 1
1009 3 3.048356794264358 7.701108610186132 3.117062057986182 3 1 1
1013 3 4.270494479455547 6.830856777192827 1.0565026519351555 3 1 1
442 3 4.235693455731173 4.241572628917027 1.0759684265388474 3 1 1
1057 3 5.537606416605263 5.9340083642486565 3.147618053363377 2 1 1
492 3 6.721880631006729 5.14649871526814 1.0601294535168775 2 1 1
1061 3 6.732620467394186 7.697181166621086 1.056036944102134 2 1 1
1062 3 7.967397338390306 6.81438009145935 3.188065695855048 2 1 1
1037 3 9.17618312401629 5.959563686412199 1.0722380641171865 2 1 1
497 3 7.981188665303617 4.212903439194826 3.219539232732969 2 1 1
503 3 10.422285748787086 5.062181631155758 3.2196684166590392 2 1 1
480 3 11.626101709335728 4.196715546493367 1.1222247928100475 2 1 1
1043 3 11.611133601315998 6.827229626138538 1.132548442449091 2 1 1
1015 3 12.888631574928446 5.937578720443499 3.2253731741156706 2 1 1
484 3 14.135384236770902 5.061213570309818 1.1461655207444092 2 1 1
1019 3 14.130580084277929 7.6950286266243335 1.1169386006714008 2 1 1
457 3 1.8575319814188163 3.2972190909808035 5.322741851447496 3 1 1
430 3 1.8163403153563866 0.706207081259502 5.375729394327013 3 1 1
519 3 3.0720411296627783 2.428000801329765 7.510009772063353 3 1 1
450 3 0.5828163438499415 1.5181573097938112 7.5153260519375396 3 1 1
437 3 4.283100967622221 1.5715010566517693 5.367078878190019 3 1 1
490 3 6.7567622049415474 2.4532254421514565 5.341282581776746 2 1 1
566 3 5.5318453245735615 3.324568554783575 7.488830318600501 2 1 1
486 3 5.47125476269047 0.7306854292735212 7.435990669147846 2 1 1
438 3 4.307250066832509 4.138200626389109 5.3542612396195395 3 1 1
467 3 9.19996407145278 0.7269680243054785 5.341418182770537 2 1 1
561 3 8.001098605660356 1.6117690982372275 7.454206985589997 2 1 1
498 3 9.218397452816541 3.326548691922611 5.335990997652957 2 1 1
468 3 10.459190410646555 2.455085387417833 7.491633992548369 2 1 1
474 3 11.678357233205098 1.59013174180147 5.351277888756309 2 1 1
449 3 14.129587733031064 2.4333873839548077 5.347555409365328 2 1 1
444 3 12.903564594234533 0.7146199039372927 7.509827979294043 2 1 1
476 3 12.860411620612533 3.2510531924064674 7.5188425284270375 2 1 1
534 2 0.6115454897620334 4.176460653253444 7.5285267693288755 3 1 1
1007 3 1.7926326940245494 5.895193646163626 5.329216239675407 3 1 1
458 3 3.10308109952055 5.073781237602471 7.535274194773032 3 1 1
1017 3 0.6158830166385865 6.876756436993587 7.55561163897114 3 1 1
1095 3 3.037241054846969 7.710250988226157 7.592450290053547 3 1 1
1058 3 6.76164988281683 7.7323402586217345 5.288546023232911 2 1 1
1010 2 4.300743147319994 6.813651400065132 5.336754551326277 3 1 1
1056 3 5.488081804007933 5.912837849193654 7.543319105144197 2 1 1
506 3 6.772590837556573 5.035050377619052 5.312285005933774 2 1 1
1118 3 10.43246683068997 7.722016156780218 7.548493011217943 2 1 1
491 3 8.001040989524856 4.153153979413322 7.4766694849455035 2 1 1
1059 2 7.962164771605152 6.821878661048864 7.49975515634414 2 1 1
499 3 10.409550909782858 5.027736225904126 7.5087202603141465 2 1 1
1036 3 9.223658361140084 5.916954434539818 5.29823157811544 2 1 1
482 3 14.137267652901215 5.062559261592449 5.290208466174543 2 1 1
475 3 11.66779590982792 4.17646946837491 5.344218912820686 2 1 1
1039 3 11.633751260080226 6.781066071652726 5.314368481684204 2 1 1
1100 2 12.875406087130923 5.953785644487687 7.53520501579236 2 1 1
1038 3 10.4034989602003 7.669745953403305 3.1851329304415863 2 1 1
516 3 2.929496478805007 2.5159889727805163 11.7795040919649 3 1 1
531 3 0.5253664126449878 1.6192488483349656 11.763493396383698 3 1 1
514 3 1.778832424543249 0.712670569376252 9.647717467973264 3 1 1
535 3 1.8171573617946706 3.3262975159226387 9.7077519848332 3 1 1
564 2 5.464593832447347 3.434526098071185 11.80885040884422 2 1 1
553 2 5.4256370375702305 0.7194226626610258 11.839702366749016 2 1 1
520 3 4.202051916699248 1.6090508695137942 9.581814263280668 3 1 1
557 3 6.760568571954577 2.536194760544826 9.553004656323093 2 1 1
558 2 8.04409353751143 1.6217967727136415 11.819767854847465 2 1 1
543 3 10.501437353208983 2.500458273694602 11.81129246226048 2 1 1
541 3 9.306249739030262 0.7213218535527278 9.601506389350936 2 1 1
562 3 9.240061549975925 3.3560370116756 9.629946937125908 2 1 1
530 3 14.10012782436221 2.4379120864621653 9.684212843379507 2 1 1
549 3 12.876940135626588 3.3436376028974606 11.819776782537856 2 1 1
525 3 12.898074458277167 0.7191760179071292 11.803108210737326 2 1 1
547 3 11.68217418486762 1.580090857532599 9.66473391233926 2 1 1
532 3 0.5487558281449824 4.234016414330132 11.824307771971245 3 1 1
1091 3 1.8063110780982958 5.981626311452168 9.70245500776719 3 1 1
536 3 2.9836674325204244 5.142106665648591 11.815700611018505 3 1 1
1102 3 0.5752230086614845 6.838687262321345 11.825373985461784 3 1 1
1092 3 3.017464574432966 7.703724430465216 11.811925736178125 3 1 1
511 3 6.738372180309806 5.0970136144544576 9.64716611838647 2 1 1
1129 3 5.474005005104744 6.038486855406387 11.811223179904728 2 1 1
521 3 4.2306975095126225 4.237595484409636 9.613430003627235 3 1 1
1096 3 4.249159440055234 6.84006983516906 9.664028099605503 3 1 1
1131 3 6.6946899590862055 7.71230986544157 9.689254618686654 2 1 1
559 3 8.010867378545784 4.30414686575413 11.814906815773234 2 1 1
1132 3 7.953112239492502 6.813322180207149 11.78638307554199 2 1 1
563 3 10.43313756047126 5.086112003803922 11.8133821089807 2 1 1
1114 3 9.22442421196935 5.936428434373142 9.691812401940636 2 1 1
1115 3 10.471170234719281 7.665882593743778 11.767318999347596 2 1 1
1101 3 14.126788416279643 7.717733106425035 9.70597486813633 2 1 1
548 3 11.651273978361498 4.182773876453598 9.688842696704214 2 1 1
1098 3 12.888729306102006 5.956452220817829 11.82346622490022 2 1 1
1119 3 11.634421528637274 6.844062570840628 9.725403375271787 2 1 1
551 3 14.113252568467109 5.081100805779722 9.764199164653665 2 1 1
533 3 1.7731514323452742 3.428616589461292 13.961403705742141 3 1 1
512 2 1.7819241351130464 0.7186167030566956 13.959627290307202 3 1 1
14 3 3.0104558284072938 2.5229904593828114 16.088530837609337 3 1 0
30 3 0.6072712238574347 1.6473094383722395 16.156615645596183 3 1 0
550 3 14.112047149930808 5.103638372356489 13.960562343189297 2 1 1
555 3 6.725947084422011 2.518547571146399 14.075452533764391 2 1 1
517 3 4.25327582474033 1.6390597297337528 14.039066285157864 3 1 1
58 3 5.5185105829614285 0.7034495531983536 16.095216910474303 2 1 0
71 3 5.5034133939961025 3.389242775956064 16.11089359438175 2 1 0
64 3 7.93794705395933 1.6399823197080008 16.138512503807018 2 1 0
539 3 9.21845876445466 0.7368287880384409 13.977755936399252 2 1 1
560 3 9.206446201088673 3.3846028616069472 14.000062481534997 2 1 1
46 3 10.409747352737368 2.558287772470797 16.125246220376454 2 1 0
544 3 11.655391198564976 1.645210890180356 13.911986157018852 2 1 1
527 3 14.094027893090757 2.526854683627708 13.941748503206915 2 1 1
51 3 12.892552268017104 3.41651432884835 16.111592648120865 2 1 0
24 2 12.942817550950465 0.7488854312687234 16.117098812310843 2 1 0
31 3 0.5721346891565813 4.242440926335873 16.107761420593164 3 1 0
1090 3 1.7977872478476602 5.983803493065583 13.968728139209196 3 1 1
583 3 0.5913025335988675 6.826933490359721 16.10411456642114 3 1 0
34 3 3.0347211736935376 5.116639128425824 16.114026971173114 3 1 0
572 3 3.0461181523094703 7.693881714131659 16.112984096736373 3 1 0
518 3 4.22001464739312 4.27750124189266 14.01583517887825 3 1 1
565 3 6.7265904115980195 5.129328090467912 14.004176414153797 2 1 1
1093 3 4.2540706995144895 6.842547224480016 13.973650727412103 3 1 1
613 3 5.502835889925232 5.972812224318733 16.12579536612605 2 1 0
1130 3 6.679427981363476 7.668413116936532 13.974768969647949 2 1 1
598 3 10.46982197424362 7.604768299487013 16.153643715127025 2 1 0
65 3 7.956917439926949 4.2409604800234995 16.132330693311403 2 1 0
619 3 7.953627642721377 6.802641027953124 16.14661955303039 2 1 0
1113 3 9.199510575058932 5.89935539395545 13.971456153168988 2 1 1
68 3 10.429094518280417 5.084640895318677 16.117257269302378 2 1 0
1099 3 14.147684516099078 7.684712559946718 13.960008677456255 2 1 1
1116 3 11.70814309909406 6.793586900843997 13.954959745537332 2 1 1
577 3 12.91129720342373 5.948421917280306 16.100778387877156 2 1 0
545 3 11.66320026755554 4.228446183540635 13.963717184614946 2 1 1
10 3 3.0395123239468345 2.4976890064540127 20.408598080368467 3 1 0
32 3 1.79998871947307 3.3758996915811506 18.251242991871475 3 1 0
8 3 1.7751944246744837 0.6929677084763899 18.25137816128627 3 1 0
27 3 0.595659376097133 1.6051548347720532 20.375572131713085 3 1 0
15 2 4.277118235728782 1.6004461369093936 18.24837079128895 3 1 0
69 3 5.535832984092087 3.3657070850462536 20.39452355274245 2 1 0
54 3 5.541948938462306 0.7039554952702126 20.405231252025406 2 1 0
60 3 6.782863968491029 2.5034287261204455 18.260547992321897 2 1 0
61 3 7.978418710186402 1.5954556883484812 20.37638838276245 2 1 0
42 3 10.436822234344344 2.4706289787989792 20.377626978556656 2 1 0
66 3 9.193527697185727 3.3538250837453685 18.26071996888031 2 1 0
40 3 9.169942112576036 0.7463576121554472 18.31369234668407 2 1 0
47 3 11.657446756480725 1.6403442161981607 18.319400653669955 2 1 0
26 3 14.150213895859794 2.5019497416228824 18.27756859166197 2 1 0
49 3 12.898698197268128 3.346008592728148 20.36503772163025 2 1 0
20 3 12.90342758401887 0.7347409963506903 20.381653438397386 2 1 0
33 3 3.065061281432279 5.090036808604002 20.371270494082847 3 1 0
579 3 0.6190398150270892 6.80190831902131 20.31196106742714 3 1 0
568 3 1.8218168223490967 5.964173522566836 18.238359107975842 3 1 0
28 3 0.5948414991668104 4.218714433577015 20.362660717800132 3 1 0
569 3 3.0614814658435336 7.68085913966425 20.370652965035596 3 1 0
16 3 4.281827910020095 4.278698211868503 18.24883827842791 3 1 0
72 3 6.740164176262433 5.0930387848478516 18.262277158100556 2 1 0
611 3 5.524441431925196 5.952603683799753 20.387176747372564 2 1 0
573 3 4.282452550846274 6.8237242530179 18.255083822067917 3 1 0
614 3 6.734038619134541 7.671407753049848 18.271143773884017 2 1 0
615 3 7.972833412745704 6.813998942958 20.384921328599933 2 1 0
594 3 9.190067773372895 5.9434600964002335 18.262134309000995 2 1 0
62 3 7.982036768464163 4.215110608220183 20.380094524604864 2 1 0
67 3 10.429668496240515 5.075070527298332 20.363734235493165 2 1 0
595 3 10.416955948626997 7.679809230699096 20.36814266099291 2 1 0
48 3 11.663545813553045 4.219188962809841 18.24984226780048 2 1 0
575 3 12.878958124459187 5.928877222751097 20.32913700193529 2 1 0
599 3 11.665785575507405 6.8026380970830065 18.23986489791931 2 1 0
52 3 14.135495893946032 5.087727503079008 18.235249901328324 2 1 0
578 3 14.14180468045745 7.68229685387565 18.225801283586595 2 1 0
29 3 1.832087406142053 3.3530131559639598 22.484002242878514 3 1 0
5 3 1.792287452039164 0.7502554273778321 22.43067461458565 3 1 0
86 3 3.0592693960627635 2.534933610265803 24.60581078379874 3 1 0
102 3 0.5641910062842787 1.6338499282914989 24.608101062134118 3 1 0
11 3 4.308463419367439 1.6236866982773224 22.45619024106677 3 1 0
56 3 6.757160527763076 2.4715106350429097 22.482716579237913 2 1 0
143 3 5.519339697869368 3.3449979188202366 24.609859212355698 2 1 0
130 3 5.574556020036382 0.7502247169169022 24.579794346586592 2 1 0
136 3 7.967192870394616 1.5818432915809584 24.593499928541057 2 1 0
63 3 9.209236309926982 3.331236624716337 22.481969297782598 2 1 0
37 3 9.198515900946019 0.7154153836389665 22.47843850909776 2 1 0
118 3 10.412477596191454 2.4560302171860244 24.58973691130441 2 1 0
43 3 11.653601148413387 1.6023532967505298 22.48296755746549 2 1 0
22 3 14.123727072585563 2.483108225519716 22.484164516674728 2 1 0
123 3 12.890188567640442 3.339878610108196 24.59954605075439 2 1 0
96 3 12.88465720302658 0.7801499989505162 24.600688094154545 2 1 0
644 3 3.0564822537303233 7.6806013370408275 24.6191947680438 3 1 0
103 3 0.5922670254121284 4.213272617224613 24.60612839874819 3 1 0
567 3 1.8546028631369367 5.931542705605849 22.483406549758072 3 1 0
655 3 0.6174290746452681 6.796608411528677 24.64988054280228 3 1 0
106 3 3.0597050465444005 5.078998091469707 24.61277507982107 3 1 0
12 3 4.302159793242251 4.222296542096894 22.492173137853523 3 1 0
570 3 4.296175382300694 6.811093030780032 22.502624790265198 3 1 0
70 3 6.757775642020194 5.079053706559916 22.50184247235738 2 1 0
685 3 5.514299998383432 5.945252099536221 24.626446126662255 2 1 0
612 3 6.745516763913705 7.677059211296752 22.508113955478866 2 1 0
140 3 10.425236669276408 5.072897895553459 24.595850565155757 2 1 0
670 3 10.424929327982536 7.688358648807692 24.602081292451814 2 1 0
137 3 7.96575798492222 4.202464074176159 24.605303762181997 2 1 0
691 3 7.96857170302387 6.815555431689635 24.6174342779087 2 1 0
593 3 9.205518602648867 5.942217306663793 22.491175849416116 2 1 0
44 3 11.655421867849805 4.204317219297255 22.47651383765723 2 1 0
596 3 11.605485088641773 6.79727919780247 22.476776349538884 2 1 0
649 3 12.881577706966146 5.930694234136254 24.619301436849348 2 1 0
50 3 14.126826819944208 5.028352217358021 22.47674512215903 2 1 0
576 2 14.126939004377377 7.684331494819338 22.47619096099139 2 1 0
82 3 3.0651904868101005 2.4779359453752714 28.874049483163045 3 1 0
99 3 0.6133495466442797 1.5996498629785394 28.8594637218795 3 1 0
104 3 1.8230259351227045 3.3476328835529867 26.73288343503139 3 1 0
80 3 1.796112255524702 0.7686621086207158 26.778893987623412 3 1 0
87 3 4.3014899890020155 1.6671625530719707 26.7570632825322 3 1 0
141 3 5.503203308562832 3.3398162974101058 28.875669707299014 2 1 0
126 3 5.526558962132275 0.739505377353974 28.90482272376819 2 1 0
132 3 6.732065238738825 2.4642283176254445 26.73334947095263 2 1 0
133 3 7.901100011766534 1.5653554834348247 28.872907836268716 2 1 0
114 2 10.42573682496485 2.4089744334545475 28.85588378126246 2 1 0
112 3 9.171986981549633 0.6807430891885036 26.69829798518889 2 1 0
138 3 9.14774633719382 3.332612458900435 26.664551739713676 2 1 0
98 3 14.14107476487119 2.469632314896557 26.72948954959283 2 1 0
121 3 12.979707721866674 3.3264889733384706 28.855566568641184 2 1 0
92 3 12.960198037376475 0.7165789344387533 28.835962114387033 2 1 0
119 3 11.683959887216778 1.5692453482993804 26.674285507221885 2 1 0
105 3 3.0489424030816403 5.066814776883349 28.868303791019976 3 1 0
651 3 0.5772109519443357 6.788697821702231 28.84226187243924 3 1 0
640 3 1.8123722218427163 5.940950565361155 26.735349425043285 3 1 0
100 3 0.601098943201182 4.19546872536233 28.859455597060254 3 1 0
641 3 3.075763561814872 7.65844271286368 28.824661085828016 3 1 0
683 3 5.50113807023181 5.941637317578286 28.8686836524507 2 1 0
88 3 4.27943261969287 4.214756290200174 26.743329946742413 3 1 0
645 3 4.273520076128334 6.815256795582039 26.74157873918148 3 1 0
144 3 6.7240244146469355 5.0801471769496604 26.737435520334333 2 1 0
686 3 6.730174939893471 7.685334962580437 26.73864420967743 2 1 0
687 3 7.929708303516708 6.829623377912059 28.85720974872652 2 1 0
134 3 7.885621224151581 4.200557262436746 28.864322953763637 2 1 0
139 2 10.429010302585471 5.111600273485685 28.85411990213032 2 1 0
666 3 9.161856715472624 5.966020930729904 26.678699510814145 2 1 0
667 3 10.426115526705445 7.7319300874785215 28.84158022593979 2 1 0
120 3 11.69481845924558 4.1992294423294325 26.660081342221034 2 1 0
671 3 11.674253745883943 6.8321831474934775 26.697037594739864 2 1 0
647 3 12.954304222446098 5.9472729672232845 28.85204797255214 2 1 0
124 3 14.13299981369219 5.075538798779666 26.726487187332705 2 1 0
650 3 14.13003255899386 7.685945788569736 26.732710906370272 2 1 0
101 3 1.83842484966615 3.3255991110830125 30.999857803988622 3 1 0
77 3 1.8409794021545025 0.7259172737223893 31.002213866983286 3 1 0
158 3 3.059245721846304 2.4556406447027923 33.13166650353687 3 1 0
174 3 0.6095240553058238 1.5953039822266417 33.12897813403069 3 1 0
83 3 4.2825725473747145 1.5954190216205097 31.01497751679539 3 1 0
202 3 5.487868776712597 0.719792045321062 33.13877294028449 2 1 0
128 3 6.723184972485222 2.451827116441037 31.011869885656523 2 1 0
215 3 5.5079792575342115 3.315359283939831 33.12869277301314 2 1 0
135 3 9.154583630692269 3.3200852581943052 31.061396800194082 2 1 0
109 3 9.143396083308039 0.706304285561136 31.028398981982107 2 1 0
208 3 7.945091786232637 1.5792942983602427 33.137805056525714 2 1 0
190 3 10.422705795522056 2.450324157734758 33.148254938043344 2 1 0
115 3 11.703742099026824 1.6238242317596936 31.052182391810078 2 1 0
94 3 14.160521773983891 2.4606111076902586 30.997766910671142 2 1 0
195 3 12.917694933042526 3.3211759154323643 33.14865911132364 2 1 0
168 3 12.920775258901193 0.7450880568620769 33.153956127966346 2 1 0
175 3 0.6213107893221316 4.182327426726766 33.13745147799288 3 1 0
716 3 3.1187490526842385 7.6439829527905 33.18087558180694 3 1 0
727 3 0.6431560280148062 6.750246056118338 33.161094677694315 3 1 0
639 3 1.8414228850173326 5.866991717524183 31.00585181309163 3 1 0
178 3 3.0781264197996743 5.048534478723412 33.13296458197299 3 1 0
684 3 6.737703873477831 7.66803926676773 30.988636983959278 2 1 0
84 3 4.289416546486256 4.193644722417792 31.004828209611127 3 1 0
642 3 4.3213374668388465 6.778518468960391 31.001397218558914 3 1 0
142 3 6.730408682673431 5.061115840311794 30.999580909466648 2 1 0
757 3 5.53131590893763 5.91631137312073 33.126135804414744 2 1 0
209 3 7.963499318679116 4.177327668091409 33.13225391320345 2 1 0
763 3 7.9708425097408435 6.790131387095106 33.122208654433564 2 1 0
665 3 9.170557837169719 5.942806514243278 31.034957418380923 2 1 0
212 3 10.438004873061127 5.046929249783547 33.14236702129964 2 1 0
668 3 11.681406821626819 6.797748662431231 30.997373001496012 2 1 0
116 3 11.710107746462342 4.183344799142826 31.058079089182723 2 1 0
648 3 14.131290351641352 7.627109745064454 30.945943859836696 2 1 0
122 3 14.157341772524127 5.044904897588949 31.001658832804477 2 1 0
721 3 12.926981820891017 5.857314319678268 33.141952866863186 2 1 0
742 3 10.391933963181764 7.6005688257714 33.128539697643255 2 1 0
154 3 3.057830110700958 2.4540809845135536 37.36706937668726 3 1 0
171 3 0.5998697918256929 1.5853462199040285 37.37792534415651 3 1 0
176 3 1.8389525186025164 3.315331229673391 35.25193856403448 3 1 0
152 3 1.8228152843776795 0.7248347881063834 35.25702659677102 3 1 0
213 3 5.502953867738511 3.308327763909691 37.36018658151879 2 1 0
198 3 5.503818399091635 0.7087484679070372 37.37632352735338 2 1 0
159 3 4.2753348798325295 1.5852149440170316 35.25323101006822 3 1 0
204 3 6.727606204975592 2.4414249242378845 35.24745441909941 2 1 0
205 3 7.957885774942989 1.5621875736111164 37.379486617207746 2 1 0
186 3 10.434834617889685 2.388242252878309 37.40077219429657 2 1 0
210 3 9.181563707994979 3.294047704719243 35.24722735130995 2 1 0
184 3 9.18267963514138 0.7147365184966451 35.264791839402676 2 1 0
191 3 11.668640090485644 1.5875636144848781 35.27470360105623 2 1 0
170 3 14.149375007186393 2.4517057860002955 35.26311625410711 2 1 0
193 3 12.934403918051629 3.29970777081048 37.39922233507461 2 1 0
164 3 12.90947132726889 0.7152897575202992 37.39379232330266 2 1 0
172 3 0.6044643287550736 4.1870384857901115 37.37643277742748 3 1 0
177 3 3.0499202104918655 5.05481825617047 37.3674810166165 3 1 0
723 3 0.5958888409215725 6.798896734046267 37.395841634247 3 1 0
712 3 1.853366405425672 5.911540176458101 35.263581768360545 3 1 0
713 3 3.051387486033081 7.6796148278785905 37.38397192894833 3 1 0
160 3 4.2914342406416255 4.183187137300307 35.24357089847737 3 1 0
717 3 4.305704945331351 6.793323185891356 35.25894708415016 3 1 0
755 3 5.497799364926542 5.936302392014164 37.36349096113468 2 1 0
148 3 6.737773634565256 5.051997338846824 35.24650360980472 2 1 0
758 3 6.738068063101723 7.674649746222963 35.25794324055844 2 1 0
739 3 10.42290605751212 7.726556669590002 37.41919305453988 2 1 0
759 3 7.9336782691474275 6.833072295227955 37.38644235043406 2 1 0
206 3 7.911450839022036 4.162132862939461 37.3757907691536 2 1 0
211 2 10.431901611233606 5.0592643174585135 37.4076985573308 2 1 0
738 3 9.173666569168349 5.934609035993907 35.22930136667396 2 1 0
722 3 14.188046493422549 7.5972436850986025 35.31801339653893 2 1 0
743 3 11.679746933458889 6.7834607936022735 35.277886936244904 2 1 0
719 3 12.951674738455841 5.940976363068025 37.409879111119565 2 1 0
196 3 14.158163106666644 5.043959690934886 35.27069839447239 2 1 0
192 3 11.694956633768754 4.165355436823932 35.24280909498161 2 1 0
149 3 1.8546583575727087 0.6931209148112203 39.46351379462249 3 1 0
173 3 1.8335139386574124 3.34147218502842 39.47053830912253 3 1 0
229 3 3.0934254608954723 2.4642486687849563 41.63252057656587 3 1 0
245 2 0.595520632653394 1.5869365567061964 41.640525022714534 3 1 0
155 3 4.282445098960824 1.5691856033813802 39.48822264901006 3 1 0
200 3 6.722381289096549 2.4083355832497797 39.478065642870426 2 1 0
286 3 5.448540617609274 3.2421324284661424 41.631951496164504 2 1 0
273 3 5.516905002009 0.6953035631153214 41.626449189346665 2 1 0
188 3 11.701033242511498 4.174138724294748 39.57052318930849 2 1 0
279 3 7.982093312773924 1.5065187603743586 41.63637501457412 2 1 0
207 3 9.216955129666339 3.257848359643204 39.49508253874837 2 1 0
181 3 9.210695010920576 0.6929192400683055 39.51247764158693 2 1 0
261 3 10.465114459598778 2.421697184433249 41.649608886785956 2 1 0
166 3 14.122974241969926 2.467780010410142 39.467198992617014 2 1 0
187 3 11.679581849970193 1.5690999218065085 39.52164972891849 2 1 0
239 3 12.85450711341043 0.6899214468004676 41.64390506882305 2 1 0
266 3 12.884882232454231 3.344853406211303 41.64574022970128 2 1 0
711 3 1.791680260850402 5.943547224276539 39.490036804354624 3 1 0
246 3 0.5792904046783379 4.258937177236141 41.63449244497418 3 1 0
249 3 2.9643465892798813 5.057659210412977 41.62504529797619 3 1 0
800 3 0.553954635234033 6.82400422966485 41.6310213971117 3 1 0
156 3 4.251394766851115 4.176411120022418 39.46461048262926 3 1 0
714 3 4.218908020674149 6.838842183958077 39.44248954744028 3 1 0
214 3 6.718630443330017 5.057816985899884 39.416420180269625 2 1 0
830 2 5.452019579516544 5.941357580346799 41.60911909697402 2 1 0
756 3 6.7294104614395795 7.720684228090659 39.479742347364535 2 1 0
280 2 7.986428031293118 4.160660422510939 41.64323160539727 2 1 0
836 3 8.040408889825937 6.868552366433127 41.59930807606663 2 1 0
283 3 10.499071355383057 5.082555511544814 41.658389387648434 2 1 0
737 3 9.186037210413794 5.985674472674962 39.546220132549976 2 1 0
815 3 10.448428413499668 7.7054715914673215 41.652125065154735 2 1 0
794 3 12.893156099823146 5.955727485205359 41.64861962786217 2 1 0
720 3 14.10895001582739 7.6921914705475745 39.519302406464156 2 1 0
194 3 14.12980427076958 5.0724482848124985 39.51106326782089 2 1 0
740 3 11.67454038647444 6.840507960688604 39.54681367966212 2 1 0
789 3 2.9826157919071385 7.709365860533882 41.618326420685456 3 1 0
225 3 3.0293015320746637 2.462258972383725 45.905874318169104 3 1 0
223 3 1.8319378622858569 0.7038933608461604 43.81021056817426 3 1 0
247 3 1.8193508760222439 3.3462683402497237 43.8014078564799 3 1 0
242 3 0.5584504115470319 1.5920611586275508 45.897574154110536 3 1 0
275 3 6.725133824195821 2.423071115874594 43.79751725710853 2 1 0
284 3 5.497661522347236 3.3185908248438554 45.9131210618966 2 1 0
269 3 5.507813954437284 0.7234914552546186 45.88971699069248 2 1 0
230 3 4.275892568463725 1.5776455905381659 43.77358282799252 3 1 0
259 3 11.657628222907354 4.186333379602132 47.98655626074882 2 1 0
276 3 7.9696750537305565 1.5840358547705673 45.892979296341174 2 1 0
257 3 10.432903566790891 2.4477749114395357 45.8810743839964 2 1 0
281 3 9.241329442286828 3.291597053590122 43.82012092327391 2 1 0
255 3 9.212044443363412 0.703432603376938 43.77044890443445 2 1 0
867 3 12.906835074236932 5.910398708733769 50.069603532809246 2 1 0
264 3 12.890021864905725 3.3283390104177517 45.8819812002831 2 1 0
235 3 12.875394770343167 0.710548158636377 45.88655049388996 2 1 0
262 3 11.664982746745293 1.5762680380519727 43.76829602727729 2 1 0
241 3 14.098553092263101 2.4814766444051606 43.81194616087944 2 1 0
243 3 0.572239907577479 4.203446345988136 45.899345083074635 3 1 0
248 3 3.0255574182160583 5.062383951977246 45.90383163765968 3 1 0
796 3 0.5759594864705083 6.810830636228812 45.886076688126515 3 1 0
785 3 1.7880395093055426 5.945746984951574 43.76931264035133 3 1 0
813 3 11.679175678210203 6.809259239993986 48.00072322244845 2 1 0
231 3 4.243869318289639 4.175927507808162 43.800683309737764 3 1 0
828 3 5.49268458789261 5.920518509568851 45.92601191546611 2 1 0
790 3 4.179062861247191 6.817908062846908 43.80014810076745 3 1 0
219 3 6.730821387335655 5.010432734865076 43.85854868572196 2 1 0
831 2 6.7596911775330275 7.702175883862125 43.78333715010246 2 1 0
277 3 7.977731071593827 4.190191141730878 45.90464923535375 2 1 0
832 3 8.027991502896493 6.795771679186331 45.951298711180876 2 1 0
282 3 10.454238759899155 5.068138711540481 45.88947355873137 2 1 0
811 3 9.265021977647102 5.937562827731417 43.80204683151554 2 1 0
812 3 10.471173930938177 7.6870893377787874 45.90195669240588 2 1 0
267 3 14.123625496847572 5.082696381806856 43.774850127709435 2 1 0
792 3 12.905678827226122 5.944747563019157 45.88961820673641 2 1 0
263 3 11.674389944826466 4.202791296561786 43.77381109526116 2 1 0
816 3 11.682166363584122 6.82018119749296 43.781066012713424 2 1 0
795 3 14.111345887175649 7.6857689463138765 43.76499142610188 2 1 0
265 3 14.120039225237441 5.059184618741694 47.99913672700282 2 1 0
220 3 1.7830036818701673 0.726838735707891 48.01279727697589 3 1 0
244 3 1.7901646214986502 3.3277497044781126 48.013202550710304 3 1 0
300 3 3.013625841827706 2.4725140866477973 50.12926405524148 3 1 0
316 3 0.5594285294227869 1.574733433272397 50.11675436362812 3 1 0
226 3 4.23908735808093 1.6147936657487134 47.98506100548308 3 1 0
271 3 6.753283925830248 2.4805485510462923 48.00065438365305 2 1 0
325 3 5.52525855363156 3.3845492368119 50.13812733432578 2 1 0
344 2 5.5141460854469955 0.7197151431575679 50.147775364199696 2 1 0
350 3 8.03283976745428 1.6024164359191266 50.133795976965175 2 1 0
252 3 9.20499760213501 0.7165961868775597 48.00543001682832 2 1 0
278 3 9.201299666875853 3.3277831054443343 47.99444410121382 2 1 0
332 3 10.425024701224178 2.4435538147188196 50.1100851826766 2 1 0
258 3 11.648047741499122 1.577229557195913 47.99040024350805 2 1 0
237 3 14.10154511226197 2.44898915541953 47.999380988078975 2 1 0
310 3 12.880304793269977 0.704139237334397 50.115435280311615 2 1 0
337 3 12.870369011532466 3.3009897895109495 50.103275475258386 2 1 0
317 3 0.5699586560346057 4.177170984330437 50.10434144887802 3 1 0
873 3 0.5756200651645709 6.793394574311114 50.09016164664571 3 1 0
784 3 1.807705109668467 5.929996994861292 48.00136575149894 3 1 0
320 3 3.0546486442440144 5.068703693888195 50.112501617340875 3 1 0
227 3 4.268810714428786 4.201050807808629 48.02012994949249 3 1 0
787 3 4.281149739390132 6.796684375950788 48.01179668038355 3 1 0
903 3 5.534750103647911 5.9439471709351395 50.126513037734895 2 1 0
285 3 6.7490429888896415 5.070591310946677 48.01708429416797 2 1 0
793 3 14.132357402445425 7.676847827380441 48.00165296774135 2 1 0
351 3 7.984071920993145 4.20102313679109 50.12451142501845 2 1 0
909 3 7.978504740367731 6.815874660474912 50.12348076818383 2 1 0
354 3 10.413041509841062 5.0449315501585374 50.090325303532445 2 1 0
810 3 9.217917971125653 5.936905692567012 48.00671699964622 2 1 0
862 3 3.0833575567871496 7.664294204135545 50.06994994782624 3 1 0
888 3 10.407345814210698 7.712556765091252 50.07681917363264 2 1 0
786 3 3.02500928735896 7.676155923388019 45.883878334492195 3 1 0
829 3 6.762609978669125 7.67714468562513 48.02801823910137 2 1 0
296 3 3.0889664737142413 2.3805520822609103 54.37847518916046 3 1 0
318 3 1.8251482258949279 3.286765237220163 52.18026662568995 3 1 0
294 3 1.808843689602288 0.6945084428107735 52.24721740559476 3 1 0
313 3 0.582837688879268 1.5010438969369313 54.365699312072984 3 1 0
301 3 4.27129517227849 1.592383713514955 52.30795351544773 3 1 0
346 3 6.786406657935527 2.467620507459961 52.28575625523938 2 1 0
355 3 5.570644467079301 3.303695506016711 54.3892299912283 2 1 0
340 3 5.535984456853138 0.7040239743167565 54.39100871297037 2 1 0
347 3 7.997020489588133 1.5743835877091734 54.387203601290935 2 1 0
328 3 10.434844355087316 2.4297108728516137 54.37553030881767 2 1 0