LAMMPS (22 Dec 2022)
OMP_NUM_THREADS environment is not set. Defaulting to 1 thread. (../comm.cpp:98)
  using 1 OpenMP thread(s) per MPI task
# general variables
variable	temperature equal 900
variable	nsteps_run equal 1000000

# general settings
units		metal
dimension 3
boundary	p p p

#processors      3 3 3
atom_style	atomic

# ------------------- ATOM DEFINE ------------------------------

variable        latparam equal 3.01685999999993             #variable

variable        xl equal 0
variable        xh equal 3
variable        yl equal 0
variable        yh equal 3
variable        zl equal 0
variable        zh equal 16

lattice         bcc ${latparam} orient x 1 1 -2 orient y 1 1 1 orient z 1 -1 0
lattice         bcc 3.01685999999993 orient x 1 1 -2 orient y 1 1 1 orient z 1 -1 0
Lattice spacing in x,y,z = 4.9265118 5.2253548 4.2664843
region          mybox block ${xl} ${xh} ${yl} ${yh} ${zl} ${zh}
region          mybox block 0 ${xh} ${yl} ${yh} ${zl} ${zh}
region          mybox block 0 3 ${yl} ${yh} ${zl} ${zh}
region          mybox block 0 3 0 ${yh} ${zl} ${zh}
region          mybox block 0 3 0 3 ${zl} ${zh}
region          mybox block 0 3 0 3 0 ${zh}
region          mybox block 0 3 0 3 0 16

create_box      5 mybox
Created orthogonal box = (0 0 0) to (14.779535 15.676064 68.263749)
  1 by 2 by 8 MPI processor grid

mass 1 180.948
mass 2 92.9064
mass 3 50.9415
mass 4 95.94
mass 5 183.84

create_atoms 3 box
Created 1152 atoms
  using lattice units in orthogonal box = (0 0 0) to (14.779535 15.676064 68.263749)
  create_atoms CPU = 0.011 seconds
set type 3 type/ratio 2 0.05 384
Setting atom values ...
  57 settings made for type/ratio

# ----------------------- FORCE FIELDS -----------------------
pair_style mlip mlip.ini
pair_coeff * *

# ------------------------- SETTINGS --------------------------
timestep 0.001
delete_atoms overlap 2 all all
System init for delete_atoms ...
Neighbor list info ...
  update: every = 1 steps, delay = 0 steps, check = yes
  max neighbors/atom: 2000, page size: 100000
  master list distance cutoff = 6.8
  ghost atom cutoff = 6.8
  binsize = 3.4, bins = 5 5 21
  2 neighbor lists, perpetual/occasional/extra = 1 1 0
  (1) command delete_atoms, occasional, copy from (2)
      attributes: full, newton on
      pair build: copy
      stencil: none
      bin: none
  (2) pair mlip, perpetual
      attributes: full, newton on
      pair build: full/bin/atomonly
      stencil: full/bin/3d
      bin: standard
Deleted 0 atoms, new total = 1152
velocity all create ${temperature} 4928459 rot yes dist gaussian
velocity all create 900 4928459 rot yes dist gaussian

fix 1 all atom/swap 1 1 114514 ${temperature} types 3 2
fix 1 all atom/swap 1 1 114514 900 types 3 2
fix temp all npt temp ${temperature} ${temperature} 0.1 iso 0 0 0.1
fix temp all npt temp 900 ${temperature} 0.1 iso 0 0 0.1
fix temp all npt temp 900 900 0.1 iso 0 0 0.1
thermo 1000
thermo_style custom step pe ke etotal time cpu tpcpu

dump 1 all custom 20000 dump.* id type x y z
run ${nsteps_run}
run 1000000
Neighbor list info ...
  update: every = 1 steps, delay = 0 steps, check = yes
  max neighbors/atom: 2000, page size: 100000
  master list distance cutoff = 6.8
  ghost atom cutoff = 6.8
  binsize = 3.4, bins = 5 5 21
  1 neighbor lists, perpetual/occasional/extra = 1 0 0
  (1) pair mlip, perpetual
      attributes: full, newton on
      pair build: full/bin/atomonly
      stencil: full/bin/3d
      bin: standard
Per MPI rank memory allocation (min/avg/max) = 4.351 | 4.354 | 4.355 Mbytes
   Step         PotEng         KinEng         TotEng          Time           CPU           T/CPU     
         0  -10499.523      133.90058     -10365.623      0              0              0            
      1000  -10366.932      129.13892     -10237.793      1              117.80408      0.0084886701 
      2000  -10369.378      139.68508     -10229.693      2              237.39121      0.0083621037 
      3000  -10366.213      133.84299     -10232.37       3              359.30557      0.0082024797 
      4000  -10363.936      136.05315     -10227.883      4              479.90012      0.0082922487 
      5000  -10366.882      134.19587     -10232.686      5              600.38385      0.0082998754 
      6000  -10362.418      136.06646     -10226.352      6              720.15423      0.00834931   
      7000  -10363.208      130.07426     -10233.134      7              842.14531      0.0081973203 
      8000  -10370.815      131.79564     -10239.02       8              962.12972      0.0083344163 
      9000  -10365.477      138.77601     -10226.701      9              1079.4581      0.0085230846 
     10000  -10369.585      129.85781     -10239.727      10             1203.1736      0.0080830618 
     11000  -10369.342      138.4006      -10230.942      11             1323.8077      0.0082895295 
     12000  -10364.076      135.99714     -10228.079      12             1444.4888      0.0082863071 
     13000  -10366.946      135.0722      -10231.874      13             1565.8936      0.0082369062 
     14000  -10363.579      130.37321     -10233.206      14             1686.5046      0.0082911169 
     15000  -10363.546      129.02175     -10234.524      15             1808.6819      0.0081848263 
     16000  -10365.523      133.29106     -10232.232      16             1928.4051      0.0083525984 
     17000  -10367.533      131.25655     -10236.276      17             2049.3995      0.0082648477 
     18000  -10360.092      135.79022     -10224.302      18             2169.387       0.0083341985 
     19000  -10367.69       136.72246     -10230.968      19             2288.2541      0.0084127561 
     20000  -10369.1        133.19092     -10235.909      20             2410.4057      0.0081865502 
     21000  -10362.334      136.01207     -10226.321      21             2530.6844      0.0083140233 
     22000  -10361.964      132.34364     -10229.621      22             2652.2869      0.008223516  
     23000  -10367.671      131.84122     -10235.829      23             2773.7457      0.0082332449 
     24000  -10363.238      131.97459     -10231.263      24             2892.5989      0.0084137385 
     25000  -10370.071      137.59028     -10232.481      25             3011.2844      0.0084256315 
     26000  -10363.817      135.96053     -10227.856      26             3129.3874      0.0084671807 
     27000  -10371.564      134.29328     -10237.271      27             3246.5628      0.0085342188 
     28000  -10366.541      138.9267      -10227.614      28             3363.013       0.0085873583 
     29000  -10365.361      131.60684     -10233.754      29             3479.8389      0.0085597451 
     30000  -10361.754      133.62081     -10228.134      30             3595.1637      0.0086711626 
     31000  -10360.815      134.93747     -10225.878      31             3711.5971      0.0085886031 
     32000  -10365.882      138.57487     -10227.307      32             3826.6586      0.0086910013 
     33000  -10364.132      137.44417     -10226.688      33             3940.6148      0.0087753042 
     34000  -10374.746      133.94378     -10240.802      34             4055.9206      0.0086725948 
     35000  -10364.194      133.85415     -10230.339      35             4170.4667      0.0087301071 
     36000  -10367.601      134.21154     -10233.389      36             4285.3289      0.0087060864 
     37000  -10365.684      135.33199     -10230.352      37             4400.2133      0.0087044021 
     38000  -10360.255      130.65196     -10229.603      38             4513.8692      0.008798482  
     39000  -10363.458      132.29869     -10231.16       39             4628.3464      0.0087353629 
     40000  -10362.599      134.7918      -10227.807      40             4741.261       0.0088562557 
     41000  -10368.949      136.07205     -10232.877      41             4854.1425      0.0088588426 
     42000  -10363.105      130.7143      -10232.39       42             4968.3072      0.0087592786 
     43000  -10367.057      134.52818     -10232.529      43             5082.6995      0.008741847  
     44000  -10368.524      137.60082     -10230.923      44             5196.7006      0.008771843  
     45000  -10360.115      129.0592      -10231.056      45             5311.5652      0.0087059008 
     46000  -10360.882      135.88233     -10225          46             5426.5291      0.0086983867 
     47000  -10365.273      130.48336     -10234.79       47             5541.3446      0.0087096228 
     48000  -10370.301      129.13882     -10241.163      48             5655.5393      0.008756974  
     49000  -10366.499      140.16225     -10226.337      49             5770.8838      0.0086696799 
     50000  -10369.533      132.90979     -10236.624      50             5886.4415      0.0086536908 
     51000  -10366.906      136.06499     -10230.841      51             6001.4824      0.0086925549 
     52000  -10366.445      131.10357     -10235.341      52             6115.8323      0.008745095  
     53000  -10365.267      131.45782     -10233.809      53             6230.6625      0.0087085038 
     54000  -10365.231      133.49841     -10231.733      54             6346.014       0.0086691577 
     55000  -10372.491      137.32096     -10235.17       55             6460.6737      0.0087214591 
     56000  -10367.915      134.9747      -10232.941      56             6575.4266      0.0087143817 
     57000  -10368.024      129.94198     -10238.082      57             6689.7735      0.0087453116 
     58000  -10373.009      133.23182     -10239.777      58             6804.2567      0.0087349125 
     59000  -10365.588      134.70173     -10230.886      59             6918.512       0.0087523233 
     60000  -10363.677      129.676       -10234.001      60             7034.0317      0.0086565319 
     61000  -10366.492      134.22471     -10232.267      61             7148.8071      0.0087126734 
     62000  -10358.811      139.97135     -10218.84       62             7264.551       0.0086397586 
     63000  -10363.474      130.54472     -10232.929      63             7379.9846      0.008662992  
     64000  -10361.375      139.75247     -10221.623      64             7495.5533      0.0086528656 
     65000  -10364.838      131.88652     -10232.951      65             7611.4311      0.0086297758 
     66000  -10356.939      135.96919     -10220.97       66             7727.4455      0.008619621  
     67000  -10361.933      126.02184     -10235.912      67             7843.6042      0.0086089125 
     68000  -10363.496      134.01153     -10229.484      68             7959.4186      0.0086345011 
     69000  -10369.273      129.6479      -10239.625      69             8075.2085      0.0086363335 
     70000  -10364.212      136.34387     -10227.868      70             8190.7693      0.008653452  
     71000  -10366.508      138.69831     -10227.809      71             8305.8895      0.0086865755 
     72000  -10369.665      135.34528     -10234.32       72             8422.0559      0.0086083407 
     73000  -10362.584      135.49032     -10227.094      73             8537.7182      0.0086458622 
     74000  -10366.927      131.00933     -10235.918      74             8653.6624      0.0086248338 
     75000  -10362.272      134.69154     -10227.581      75             8770.6456      0.0085482417 
     76000  -10361.413      129.74436     -10231.668      76             8890.2816      0.0083586857 
     77000  -10361.649      133.1029      -10228.546      77             9011.725       0.0082342866 
     78000  -10366.043      139.18946     -10226.853      78             9132.6526      0.0082694125 
     79000  -10367.122      129.73189     -10237.39       79             9252.2686      0.0083600828 
     80000  -10363.626      126.06835     -10237.558      80             9371.8083      0.0083654239 
     81000  -10372.136      134.86682     -10237.269      81             9490.0836      0.0084548524 
     82000  -10361.48       135.23191     -10226.248      82             9607.5349      0.0085141676 
     83000  -10372.892      131.31301     -10241.579      83             9725.2667      0.0084938776 
     84000  -10363.819      132.98775     -10230.832      84             9843.3645      0.008467559  
     85000  -10365.295      130.95826     -10234.336      85             9961.646       0.0084544071 
     86000  -10366.162      131.10362     -10235.059      86             10081.625      0.0083347652 
     87000  -10364.761      133.566       -10231.195      87             10200.52       0.0084108342 
     88000  -10368.258      128.51028     -10239.748      88             10319.637      0.0083950823 
     89000  -10360.321      128.27881     -10232.042      89             10439.937      0.0083125224 
     90000  -10363.1        132.43539     -10230.665      90             10558.269      0.0084508059 
     91000  -10366.276      130.87116     -10235.405      91             10677.773      0.0083679705 
     92000  -10362.341      134.6055      -10227.736      92             10797.864      0.0083269927 
     93000  -10365.91       132.99683     -10232.913      93             10919.967      0.0081897983 
     94000  -10362.454      134.8719      -10227.582      94             11039.818      0.0083436796 
     95000  -10368.676      134.40255     -10234.273      95             11158.708      0.0084111319 
     96000  -10361.212      137.34001     -10223.872      96             11275.511      0.0085614362 
     97000  -10360.724      136.96146     -10223.763      97             11392.179      0.0085713143 
     98000  -10370.007      137.43671     -10232.57       98             11509.156      0.0085487431 
     99000  -10356.01       136.76635     -10219.244      99             11623.388      0.0087540944 
    100000  -10369.132      133.76918     -10235.363      100            11737.049      0.0087980678 
    101000  -10366.271      137.47039     -10228.801      101            11850.032      0.0088508791 
    102000  -10365.831      128.7527      -10237.078      102            11963.323      0.0088268401 
    103000  -10362.774      135.60011     -10227.174      103            12077.011      0.0087960125 
    104000  -10366.966      135.45493     -10231.511      104            12191.381      0.0087435871 
    105000  -10363.079      132.3735      -10230.706      105            12304.421      0.0088463633 
    106000  -10370.788      134.60257     -10236.186      106            12418.522      0.0087642375 
    107000  -10364.603      132.21812     -10232.385      107            12532.659      0.0087613623 
    108000  -10365.178      132.29805     -10232.88       108            12645.947      0.0088270902 
    109000  -10364.606      134.0852      -10230.521      109            12760.191      0.0087531381 
    110000  -10360.184      133.50986     -10226.674      110            12873.698      0.008810084  
    111000  -10365.978      133.33075     -10232.647      111            12986.863      0.0088366468 
    112000  -10362.283      130.70908     -10231.574      112            13100.487      0.0088009733 
    113000  -10363.071      133.70862     -10229.362      113            13214.652      0.0087591866 
    114000  -10369.642      135.05568     -10234.586      114            13330.506      0.0086315543 
    115000  -10365.981      137.68163     -10228.299      115            13445.495      0.0086965026 
    116000  -10365.644      133.51498     -10232.129      116            13559.771      0.0087507877 
    117000  -10359.405      130.99166     -10228.413      117            13673.651      0.0087811812 
    118000  -10371.112      131.14101     -10239.971      118            13787.155      0.0088102594 
    119000  -10362.956      134.20867     -10228.747      119            13900.764      0.0088021178 
    120000  -10367.451      125.09984     -10242.351      120            14015.024      0.0087519227 
    121000  -10359.63       128.98274     -10230.648      121            14129.381      0.0087445499 
    122000  -10367.933      132.62701     -10235.306      122            14243.13       0.0087913198 
    123000  -10366.569      132.53682     -10234.032      123            14356.624      0.0088110062 
    124000  -10363.947      132.50915     -10231.438      124            14471.224      0.008726019  
    125000  -10364.402      139.20617     -10225.196      125            14586.501      0.0086747145 
    126000  -10359.947      128.42513     -10231.521      126            14701.775      0.0086750156 
    127000  -10360.675      136.69582     -10223.98       127            14816.804      0.0086934751 
    128000  -10368.379      131.5008      -10236.878      128            14930.711      0.0087790814 
    129000  -10366.889      136.59913     -10230.29       129            15046.182      0.0086601742 
    130000  -10370.24       129.22809     -10241.012      130            15161.964      0.0086368978 
    131000  -10366.443      140.96502     -10225.478      131            15279.285      0.0085236243 
    132000  -10367.942      134.86032     -10233.082      132            15397.507      0.0084587041 
    133000  -10362.943      132.41875     -10230.524      133            15514.923      0.0085167428 
    134000  -10359.217      135.42184     -10223.796      134            15634.829      0.0083398642 
    135000  -10364.153      129.59921     -10234.554      135            15754.888      0.0083292322 
    136000  -10358.197      136.53719     -10221.66       136            15875.89       0.008264285  
    137000  -10360.99       135.65471     -10225.335      137            15995.569      0.0083556873 
    138000  -10368.404      134.80036     -10233.604      138            16114.469      0.0084104713 
    139000  -10364.666      142.3211      -10222.345      139            16231.884      0.0085167682 
    140000  -10368.025      132.4905      -10235.535      140            16348.05       0.0086083451 
    141000  -10358.315      138.43602     -10219.879      141            16462.417      0.00874379   
    142000  -10368.64       129.82616     -10238.814      142            16575.934      0.0088092803 
    143000  -10358.195      130.43723     -10227.758      143            16689.961      0.0087698867 
    144000  -10367.914      134.22338     -10233.691      144            16804.086      0.0087622717 
    145000  -10371.343      133.45187     -10237.891      145            16918.768      0.0087197742 
    146000  -10362.566      134.20596     -10228.36       146            17034.332      0.0086531855 
    147000  -10372.964      131.3215      -10241.642      147            17148.86       0.0087315014 
    148000  -10363.645      133.46507     -10230.179      148            17262.766      0.0087791917 
    149000  -10366.907      132.71821     -10234.189      149            17375.893      0.0088396516 
    150000  -10359.115      137.68384     -10221.431      150            17489.417      0.0088086971 
    151000  -10368.15       131.43488     -10236.715      151            17603.73       0.0087479246 
    152000  -10362.439      135.0372      -10227.402      152            17716.681      0.0088533938 
    153000  -10365.16       136.13281     -10229.027      153            17830.722      0.0087687793 
    154000  -10372.377      131.50691     -10240.87       154            17943.817      0.0088420638 
    155000  -10372.521      135.64914     -10236.872      155            18057.759      0.0087763993 
    156000  -10360.265      137.04504     -10223.22       156            18172.649      0.0087039818 
    157000  -10369.259      132.4949      -10236.764      157            18287.247      0.0087261455 
    158000  -10362.12       135.55798     -10226.562      158            18402.281      0.0086931195 
    159000  -10366.49       137.19203     -10229.298      159            18517.304      0.0086939216 
    160000  -10365.884      133.34581     -10232.538      160            18632.048      0.0087150444 
    161000  -10365.241      132.57599     -10232.665      161            18746.526      0.0087352914 
    162000  -10359.623      134.04745     -10225.575      162            18860.561      0.0087692554 
    163000  -10366.653      134.58554     -10232.068      163            18974.431      0.0087818996 
    164000  -10362.375      133.14736     -10229.227      164            19088.583      0.0087603069 
    165000  -10364.683      135.70921     -10228.973      165            19204.388      0.0086351724 
    166000  -10361.84       132.42191     -10229.418      166            19319.934      0.008654572  
    167000  -10364.315      133.11739     -10231.198      167            19438.816      0.008411691  
    168000  -10365.406      136.13496     -10229.272      168            19560.226      0.008236588  
    169000  -10362.781      136.48556     -10226.295      169            19678.748      0.0084372283 
    170000  -10368.695      137.85595     -10230.839      170            19798.575      0.0083453707 
    171000  -10366.551      131.70539     -10234.846      171            19917.901      0.0083803885 
    172000  -10364.548      134.16774     -10230.38       172            20038.764      0.0082738701 
    173000  -10363.518      134.08248     -10229.436      173            20158.849      0.0083273705 
    174000  -10366.473      135.35103     -10231.122      174            20278.764      0.008339239  
    175000  -10362.031      133.64122     -10228.39       175            20397.999      0.0083868579 
    176000  -10359.677      127.22504     -10232.452      176            20518.795      0.0082784239 
    177000  -10359.457      133.2771      -10226.18       177            20638.416      0.0083596798 
    178000  -10371          131.96329     -10239.037      178            20757.336      0.0084090663 
    179000  -10363.678      132.89543     -10230.783      179            20876.28       0.0084073109 
    180000  -10367.886      136.07459     -10231.812      180            20997.286      0.0082640366 
    181000  -10359.782      136.49967     -10223.282      181            21116.095      0.0084168786 
    182000  -10369.477      136.40648     -10233.071      182            21237.425      0.0082419636 
    183000  -10363.468      135.62649     -10227.841      183            21354.612      0.0085333887 
    184000  -10365.263      132.09869     -10233.164      184            21470.832      0.0086043605 
    185000  -10368.81       146.32016     -10222.49       185            21587.355      0.0085820356 
    186000  -10363.842      133.62836     -10230.213      186            21703.078      0.0086412937 
    187000  -10369.627      132.16738     -10237.46       187            21818.384      0.0086725647 
    188000  -10363.93       134.90018     -10229.03       188            21933.651      0.008675517  
    189000  -10369.62       128.18471     -10241.435      189            22048.726      0.0086899726 
    190000  -10364.024      133.78003     -10230.244      190            22163.979      0.0086766115 
    191000  -10373.303      128.36705     -10244.936      191            22279.391      0.0086646055 
    192000  -10365.165      136.20495     -10228.961      192            22394.366      0.0086974903 
    193000  -10357.415      135.25565     -10222.159      193            22509.246      0.0087047245 
    194000  -10367.03       134.41161     -10232.618      194            22623.841      0.0087263895 
    195000  -10368.663      132.2932      -10236.369      195            22737.561      0.0087935487 
    196000  -10361.815      133.48102     -10228.334      196            22851.407      0.0087837992 
    197000  -10371.747      136.64505     -10235.102      197            22965.863      0.0087369618 
    198000  -10372.343      134.98276     -10237.36       198            23080.167      0.0087486071 
    199000  -10361.08       131.16185     -10229.919      199            23193.67       0.0088103672 
    200000  -10368.935      132.28098     -10236.654      200            23307.026      0.0088217416 
    201000  -10365.196      137.8364      -10227.36       201            23420.503      0.0088123409 
    202000  -10366.691      131.41736     -10235.274      202            23533.404      0.0088573205 
    203000  -10364.785      134.80646     -10229.979      203            23646.473      0.0088442138 
    204000  -10361.649      130.42842     -10231.221      204            23760.051      0.0088044672 
    205000  -10364.601      136.23391     -10228.367      205            23873.077      0.0088475504 
    206000  -10368.724      129.80043     -10238.924      206            23986.062      0.0088506983 
    207000  -10365.666      133.89379     -10231.772      207            24099.414      0.0088221157 
    208000  -10361.715      130.26965     -10231.446      208            24214.943      0.0086558011 
    209000  -10363.233      135.22106     -10228.012      209            24332.343      0.008517917  
    210000  -10358.619      131.61569     -10227.003      210            24452.71       0.008307903  
    211000  -10364.474      129.37908     -10235.095      211            24571.133      0.0084443275 
    212000  -10364.618      132.30022     -10232.318      212            24688.008      0.0085561472 
    213000  -10371.357      137.37003     -10233.987      213            24802.194      0.008757636  
    214000  -10371.659      135.18904     -10236.47       214            24916.35       0.008759915  
    215000  -10358.747      137.31271     -10221.435      215            25030.299      0.0087759078 
    216000  -10364.23       128.95659     -10235.273      216            25145.246      0.0086996769 
    217000  -10367.987      138.5076      -10229.479      217            25258.523      0.0088278862 
    218000  -10367.169      136.68317     -10230.486      218            25372.161      0.0087998398 
    219000  -10356.699      137.5269      -10219.172      219            25485.876      0.0087939629 
    220000  -10366.683      133.68292     -10233.001      220            25598.942      0.0088444049 
    221000  -10363.599      139.63228     -10223.966      221            25712.195      0.0088297868 
    222000  -10364.633      131.29765     -10233.335      222            25826.649      0.0087371036 
    223000  -10360.947      135.40905     -10225.538      223            25940.947      0.0087490931 
    224000  -10362.902      132.28441     -10230.618      224            26054.792      0.0087838428 
    225000  -10365.756      134.08789     -10231.668      225            26169.763      0.0086978764 
    226000  -10364.262      134.94784     -10229.314      226            26284.725      0.0086985201 
    227000  -10368.812      132.18532     -10236.627      227            26400.911      0.0086068288 
    228000  -10361.679      136.83466     -10224.844      228            26517.617      0.0085685766 
    229000  -10367.593      134.7282      -10232.864      229            26636.671      0.008399556  
    230000  -10367.656      140.36832     -10227.288      230            26754.58       0.0084810853 
    231000  -10365.243      135.66264     -10229.58       231            26874.997      0.0083045196 
    232000  -10365.288      136.11934     -10229.169      232            26995.342      0.0083094511 
    233000  -10368.412      133.81533     -10234.597      233            27116.53       0.0082516067 
    234000  -10365.391      134.5446      -10230.847      234            27235.437      0.0084099043 
    235000  -10366.457      133.82004     -10232.637      235            27355.246      0.0083466494 
    236000  -10362.411      130.04024     -10232.371      236            27476.764      0.008229263  
    237000  -10362.734      130.59055     -10232.144      237            27596.765      0.0083332301 
    238000  -10363.994      134.73622     -10229.257      238            27715.819      0.0083995337 
    239000  -10363.968      131.09641     -10232.871      239            27834.886      0.0083986733 
    240000  -10370.024      130.38266     -10239.641      240            27951.592      0.008568496  
    241000  -10362.831      134.21263     -10228.618      241            28068.207      0.008575239  
    242000  -10358.876      135.96383     -10222.912      242            28184.089      0.0086295087 
    243000  -10366.689      132.01124     -10234.678      243            28298.193      0.0087639385 
    244000  -10360.109      136.54792     -10223.561      244            28413.178      0.0086967429 
    245000  -10368.916      133.4359      -10235.48       245            28527.12       0.0087763786 
    246000  -10362.348      138.89975     -10223.449      246            28641.661      0.0087305003 
    247000  -10365.117      128.12154     -10236.995      247            28756.603      0.0087000667 
    248000  -10361.524      134.88235     -10226.642      248            28871.365      0.0087137085 
    249000  -10369.103      135.4054      -10233.698      249            28986.575      0.0086797483 
    250000  -10361.951      130.7753      -10231.176      250            29100.518      0.0087763622 
    251000  -10366.27       137.63922     -10228.631      251            29213.725      0.0088333304 
    252000  -10362.331      129.87793     -10232.453      252            29326.702      0.0088514234 
    253000  -10365.306      132.68755     -10232.618      253            29440.449      0.0087914431 
    254000  -10367.339      132.51569     -10234.823      254            29554.327      0.0087813234 
    255000  -10364.377      131.69349     -10232.683      255            29668.639      0.0087479738 
    256000  -10367.769      133.4556      -10234.313      256            29782.442      0.0087870966 
    257000  -10363.968      134.72088     -10229.247      257            29896.848      0.0087407633 
    258000  -10367.116      136.59641     -10230.519      258            30011.549      0.0087183402 
    259000  -10370.51       136.03258     -10234.478      259            30125.83       0.0087503646 
    260000  -10367.634      139.56084     -10228.073      260            30239.984      0.0087601381 
    261000  -10367.768      133.47371     -10234.295      261            30353.558      0.0088047815 
    262000  -10362.703      130.55847     -10232.144      262            30466.67       0.0088407965 
    263000  -10366.133      133.01446     -10233.119      263            30581.114      0.0087379337 
    264000  -10366.271      143.2665      -10223.004      264            30695.217      0.0087639906 
    265000  -10366.898      131.30829     -10235.59       265            30810.638      0.0086639377 
    266000  -10368.008      137.10466     -10230.904      266            30926.44       0.0086354168 
    267000  -10365.624      131.61004     -10234.014      267            31043          0.0085792782 
    268000  -10361.704      134.54315     -10227.16       268            31163.337      0.0083099827 
    269000  -10367.239      137.28688     -10229.952      269            31282.63       0.0083827308 
    270000  -10364.326      133.95204     -10230.374      270            31397.926      0.0086733079 
    271000  -10360.774      134.93199     -10225.842      271            31511.987      0.0087672993 
    272000  -10365.296      132.68362     -10232.612      272            31625.362      0.0088202929 
    273000  -10365.744      130.7283      -10235.016      273            31739.351      0.008772775  
    274000  -10364.579      136.16446     -10228.414      274            31853.807      0.0087369149 
    275000  -10369.369      132.12667     -10237.242      275            31969.522      0.0086419714 
    276000  -10366.228      134.15502     -10232.073      276            32084.751      0.0086783683 
    277000  -10363.056      132.90339     -10230.152      277            32199.243      0.0087342264 
    278000  -10366.366      131.46113     -10234.905      278            32313.189      0.0087760906 
    279000  -10370.037      134.20984     -10235.828      279            32427.102      0.0087785864 
    280000  -10364.751      134.75256     -10229.999      280            32541.29       0.0087574978 
    281000  -10370.084      125.36142     -10244.722      281            32655.554      0.0087516518 
    282000  -10362.116      135.08156     -10227.034      282            32770.682      0.0086860477 
    283000  -10370.7        132.85097     -10237.849      283            32885.318      0.0087232221 
    284000  -10362.387      130.83719     -10231.549      284            33000.451      0.0086856027 
    285000  -10367.414      130.47934     -10236.934      285            33114.983      0.0087312093 
    286000  -10364.289      136.22925     -10228.06       286            33234.166      0.0083904838 
    287000  -10369.657      132.13635     -10237.52       287            33352.924      0.0084204742 
    288000  -10363.183      133.75684     -10229.426      288            33471.054      0.0084652449 
    289000  -10365.768      128.78708     -10236.98       289            33586.886      0.0086331861 
    290000  -10364.421      132.26558     -10232.155      290            33700.243      0.0088217021 
    291000  -10364.943      133.52909     -10231.414      291            33813.735      0.0088111819 
    292000  -10370.937      133.61213     -10237.325      292            33927.024      0.0088269448 
    293000  -10367.579      134.21959     -10233.359      293            34040.903      0.0087812809 
    294000  -10359.807      127.19657     -10232.611      294            34154.741      0.0087844011 
    295000  -10369.269      128.37342     -10240.896      295            34269.529      0.0087117085 
    296000  -10365.62       134.78482     -10230.835      296            34384.539      0.0086949319 
    297000  -10368.311      130.7233      -10237.588      297            34498.874      0.0087462341 
    298000  -10364.997      138.79154     -10226.205      298            34612.876      0.0087717576 
    299000  -10365.966      133.61924     -10232.347      299            34726.937      0.008767185  
    300000  -10366.203      139.62307     -10226.58       300            34842.972      0.0086181416 
    301000  -10371.059      127.64181     -10243.417      301            34961.661      0.0084253302 
    302000  -10359.518      133.42351     -10226.095      302            35076.735      0.0086900969 
    303000  -10368.434      131.40837     -10237.026      303            35190.419      0.0087963295 
    304000  -10363.859      127.47475     -10236.384      304            35304.583      0.0087593445 
    305000  -10360.099      136.96533     -10223.134      305            35418.006      0.0088165199 
    306000  -10369.64       132.98652     -10236.653      306            35532.624      0.0087246662 
    307000  -10368.241      136.73574     -10231.505      307            35646.02       0.0088186463 
    308000  -10362.766      133.58246     -10229.184      308            35758.844      0.0088633245 
    309000  -10366.339      133.71095     -10232.628      309            35871.04       0.0089130078 
    310000  -10367.755      131.874       -10235.881      310            35983.561      0.0088872252 
    311000  -10362.016      132.72845     -10229.287      311            36096.672      0.0088408319 
    312000  -10367.483      137.64233     -10229.841      312            36214.6        0.0084797997 
    313000  -10363.207      131.39617     -10231.811      313            36331.776      0.0085341746 
    314000  -10366.623      127.14834     -10239.475      314            36451.483      0.0083537124 
    315000  -10369.742      140.65849     -10229.083      315            36566.926      0.0086622829 
    316000  -10370.443      131.88153     -10238.562      316            36681.205      0.0087505186 
    317000  -10363.239      130.75476     -10232.485      317            36796.138      0.0087007153 
    318000  -10367.111      133.38661     -10233.725      318            36909.899      0.008790315  
    319000  -10363.85       137.73712     -10226.113      319            37023.533      0.0088002079 
    320000  -10365.118      132.27325     -10232.845      320            37137.739      0.0087561147 
    321000  -10362.063      137.20391     -10224.859      321            37251.415      0.0087969689 
    322000  -10368.626      133.67472     -10234.952      322            37365.892      0.0087353264 
    323000  -10362.952      135.0247      -10227.927      323            37480.232      0.0087458656 
    324000  -10371.231      128.08659     -10243.144      324            37595.09       0.0087064371 
    325000  -10366.527      135.31902     -10231.208      325            37710.248      0.0086836935 
    326000  -10368.179      131.40057     -10236.779      326            37823.704      0.0088139903 
    327000  -10363.157      133.98274     -10229.175      327            37938.899      0.0086809603 
    328000  -10366.659      134.41189     -10232.247      328            38053.026      0.0087621633 
    329000  -10359.312      137.69212     -10221.62       329            38166.567      0.008807339  
    330000  -10365.859      130.72979     -10235.129      330            38280.606      0.0087689508 
    331000  -10363.967      137.29578     -10226.671      331            38394.939      0.0087463506 
    332000  -10362.703      134.90255     -10227.801      332            38508.857      0.0087782422 
    333000  -10369.124      129.48199     -10239.642      333            38622.777      0.008778107  
    334000  -10363.232      133.20422     -10230.027      334            38736.132      0.0088218618 
    335000  -10367.471      136.14728     -10231.324      335            38849.47       0.0088231423 
    336000  -10363.131      137.66278     -10225.469      336            38962.23       0.0088684323 
    337000  -10367.967      131.55813     -10236.409      337            39075.329      0.0088418074 
    338000  -10366.364      136.33353     -10230.03       338            39188.506      0.0088356801 
    339000  -10366.607      133.93148     -10232.675      339            39302.087      0.0088043475 
    340000  -10359.58       131.35536     -10228.224      340            39415.177      0.0088425104 
    341000  -10368.043      133.35432     -10234.689      341            39528.452      0.008828078  
    342000  -10363.268      135.28685     -10227.981      342            39641.46       0.0088488828 
    343000  -10361.451      132.54597     -10228.906      343            39755.406      0.0087761343 
    344000  -10366.74       135.95736     -10230.783      344            39868.757      0.0088221374 
    345000  -10373.279      130.12611     -10243.153      345            39982.839      0.0087656025 
    346000  -10360.141      136.56231     -10223.579      346            40097.382      0.0087303633 
    347000  -10367.183      134.3237      -10232.86       347            40212.099      0.0087170907 
    348000  -10359.44       136.17138     -10223.269      348            40327.625      0.0086560836 
    349000  -10363.748      133.40851     -10230.339      349            40442.825      0.0086805254 
    350000  -10356.907      130.55995     -10226.347      350            40558.104      0.0086746288 
    351000  -10367.204      132.90573     -10234.298      351            40674.481      0.0085927283 
    352000  -10364.436      134.62991     -10229.806      352            40789.888      0.0086650106 
    353000  -10369.415      134.16475     -10235.25       353            40907.254      0.0085203674 
    354000  -10366.222      129.07147     -10237.151      354            41025.099      0.0084857114 
    355000  -10364.084      137.90669     -10226.178      355            41144.404      0.0083818866 
    356000  -10365.828      132.13328     -10233.694      356            41265.184      0.0082795329 
    357000  -10365.678      139.43634     -10226.242      357            41383.781      0.0084319005 
    358000  -10360.332      135.99738     -10224.334      358            41503.124      0.0083791583 
    359000  -10362.179      127.31017     -10234.869      359            41621.69       0.0084341208 
    360000  -10367.978      133.56821     -10234.409      360            41739.367      0.0084978985 
    361000  -10371.204      132.96522     -10238.239      361            41858.071      0.0084242761 
    362000  -10362.885      134.82555     -10228.059      362            41974.73       0.0085719785 
    363000  -10367.656      132.30297     -10235.353      363            42092.057      0.008523245  
    364000  -10369.058      134.17834     -10234.879      364            42208.671      0.0085752567 
    365000  -10362.896      138.39682     -10224.499      365            42324.799      0.0086112187 
    366000  -10368.741      135.06001     -10233.681      366            42439.984      0.0086816433 
    367000  -10361.41       134.30829     -10227.101      367            42555.653      0.0086453616 
    368000  -10370.291      134.60793     -10235.683      368            42671.823      0.0086081218 
    369000  -10363.891      131.61192     -10232.28       369            42788.296      0.0085856414 
    370000  -10364.62       132.32437     -10232.296      370            42904.285      0.0086214957 
    371000  -10364.674      133.09787     -10231.576      371            43019.897      0.0086496588 
    372000  -10366.51       133.65144     -10232.858      372            43134.641      0.0087150742 
    373000  -10366.148      136.82374     -10229.325      373            43251.454      0.0085606391 
    374000  -10363.74       133.16099     -10230.579      374            43368.028      0.0085782885 
    375000  -10366.09       133.23475     -10232.855      375            43484.67       0.0085732149 
    376000  -10364.933      135.65888     -10229.275      376            43601.769      0.0085398058 
    377000  -10365.393      136.29463     -10229.099      377            43717.728      0.0086237265 
    378000  -10365.905      131.3353      -10234.57       378            43833.249      0.0086564078 
    379000  -10358.458      139.60157     -10218.856      379            43949.788      0.0085808235 
    380000  -10364.934      127.9689      -10236.965      380            44064.518      0.0087160956 
    381000  -10366.705      137.45411     -10229.251      381            44179.583      0.008690781  
    382000  -10369.617      132.40497     -10237.212      382            44293.343      0.0087904266 
    383000  -10366.402      137.37486     -10229.027      383            44407.641      0.0087490623 
    384000  -10370.603      134.60555     -10235.997      384            44521.934      0.0087494675 
    385000  -10362.936      136.75264     -10226.184      385            44637.041      0.0086875161 
    386000  -10372.95       136.29339     -10236.656      386            44751.484      0.0087379805 
    387000  -10363.456      139.94868     -10223.508      387            44865.684      0.0087565716 
    388000  -10363.334      133.1582      -10230.176      388            44980.103      0.0087398046 
    389000  -10365.168      139.92416     -10225.244      389            45095.042      0.0087002758 
    390000  -10366.079      135.39864     -10230.68       390            45210.74       0.0086432025 
    391000  -10363.072      131.44947     -10231.622      391            45325.204      0.008736362  
    392000  -10365.456      134.75784     -10230.699      392            45439.124      0.0087780729 
    393000  -10367.401      135.219       -10232.182      393            45553.833      0.0087177352 
    394000  -10370.156      132.05633     -10238.099      394            45668.211      0.0087429533 
    395000  -10372.295      131.2789      -10241.016      395            45783.323      0.0086871546 
    396000  -10367.104      133.61668     -10233.488      396            45901.202      0.0084833227 
    397000  -10360.678      135.57526     -10225.102      397            46021.824      0.0082903671 
    398000  -10365.73       122.85515     -10242.875      398            46139.966      0.0084643614 
    399000  -10364.77       137.12446     -10227.646      399            46256.224      0.0086015403 
    400000  -10367.805      138.1117      -10229.693      400            46369.998      0.0087893655 
    401000  -10358.886      130.12729     -10228.759      401            46483.279      0.0088275966 
    402000  -10371.633      136.26784     -10235.365      402            46597.375      0.0087645883 
    403000  -10363.553      144.81282     -10218.741      403            46710.422      0.0088458889 
    404000  -10366.047      133.57633     -10232.47       404            46824.086      0.0087978495 
    405000  -10366.794      141.06525     -10225.729      405            46937.749      0.0087978774 
    406000  -10367.38       133.45719     -10233.923      406            47050.928      0.008835601  
    407000  -10367.386      131.84088     -10235.546      407            47164.14       0.0088330088 
    408000  -10361.807      135.10692     -10226.7        408            47277.531      0.0088190275 
    409000  -10368.307      134.69639     -10233.611      409            47391.317      0.0087884466 
    410000  -10365.94       135.59288     -10230.347      410            47507.46       0.0086100195 
    411000  -10363.066      133.75382     -10229.312      411            47628.382      0.0082698201 
    412000  -10365.286      132.17713     -10233.109      412            47744.464      0.0086146116 
    413000  -10369.684      134.94745     -10234.736      413            47857.783      0.0088246203 
    414000  -10362.189      135.14004     -10227.049      414            47971.658      0.00878153   
    415000  -10365.964      137.09485     -10228.869      415            48084.956      0.008826318  
    416000  -10362.806      130.03501     -10232.771      416            48198.877      0.0087780122 
    417000  -10360.161      130.97348     -10229.188      417            48311.89       0.0088485729 
    418000  -10366          131.90179     -10234.098      418            48425.146      0.0088295372 
    419000  -10361.524      138.43022     -10223.094      419            48539.021      0.0087815464 
    420000  -10367.536      132.41779     -10235.118      420            48654.194      0.0086825997 
    421000  -10362.936      137.85897     -10225.077      421            48769.025      0.0087084347 
    422000  -10364.684      135.70862     -10228.975      422            48883.264      0.0087535913 
    423000  -10369.359      138.88707     -10230.472      423            48997.77       0.0087331531 
    424000  -10369.96       132.97288     -10236.987      424            49112.146      0.0087431289 
    425000  -10366.521      134.89326     -10231.628      425            49230.88       0.0084221542 
    426000  -10368.827      134.29496     -10234.532      426            49350.713      0.0083449669 
    427000  -10363.528      133.44685     -10230.081      427            49469.265      0.0084351224 
    428000  -10366.342      133.92197     -10232.42       428            49584.243      0.0086973038 
    429000  -10364.534      133.5239      -10231.01       429            49698.467      0.0087546888 
    430000  -10368.595      143.19569     -10225.4        430            49812.008      0.0088074278 
    431000  -10374.737      129.10422     -10245.633      431            49926.185      0.0087582858 
    432000  -10362.745      132.51653     -10230.228      432            50039.591      0.0088179501 
    433000  -10363.54       135.75112     -10227.789      433            50152.681      0.0088425073 
    434000  -10362.94       134.32686     -10228.613      434            50266.157      0.008812377  
    435000  -10362.944      126.56936     -10236.375      435            50379.562      0.0088179905 
    436000  -10356.753      130.38471     -10226.368      436            50492.73       0.0088363889 
    437000  -10365.704      133.67822     -10232.026      437            50607.047      0.0087475919 
    438000  -10364.134      135.11424     -10229.02       438            50721.501      0.0087371798 
    439000  -10368.022      134.26229     -10233.76       439            50835.137      0.008799993  
    440000  -10366.967      135.72887     -10231.238      440            50949.169      0.0087694814 
    441000  -10371.061      131.60517     -10239.456      441            51063.197      0.0087698274 
    442000  -10365.391      130.56102     -10234.83       442            51181.555      0.0084489367 
    443000  -10367.111      134.20154     -10232.91       443            51300.106      0.0084351279 
    444000  -10360.733      136.02131     -10224.712      444            51415.06       0.0086991622 
    445000  -10365.161      131.46238     -10233.698      445            51528.043      0.0088508615 
    446000  -10364.164      134.47576     -10229.688      446            51640.757      0.0088720183 
    447000  -10365.212      134.27639     -10230.935      447            51753.719      0.0088525569 
    448000  -10366.139      131.01701     -10235.122      448            51866.441      0.0088713525 
    449000  -10365.677      136.96402     -10228.713      449            51979.475      0.0088469455 
    450000  -10365.579      129.86507     -10235.714      450            52093.061      0.0088039126 
    451000  -10364.38       130.15274     -10234.227      451            52207.417      0.0087446161 
    452000  -10367.434      135.51613     -10231.918      452            52321.858      0.0087381309 
    453000  -10363.69       131.69292     -10231.997      453            52436.62       0.0087136781 
    454000  -10363.962      132.40006     -10231.561      454            52549.876      0.0088295308 
    455000  -10368.677      133.31886     -10235.358      455            52663.282      0.0088178428 
    456000  -10367.699      131.21478     -10236.484      456            52776.36       0.0088434952 
    457000  -10366.035      132.34689     -10233.688      457            52889.571      0.0088330683 
    458000  -10362.924      133.01735     -10229.906      458            53004.857      0.0086740756 
    459000  -10369.301      127.27525     -10242.026      459            53119.095      0.0087536736 
    460000  -10366.13       136.03415     -10230.096      460            53234.563      0.0086603816 
    461000  -10361.564      132.97815     -10228.586      461            53350.798      0.0086032814 
    462000  -10365.77       136.81973     -10228.95       462            53468.933      0.0084648991 
    463000  -10364.426      134.27052     -10230.156      463            53585.684      0.0085652235 
    464000  -10362.47       132.12184     -10230.348      464            53699.875      0.0087572419 
    465000  -10369.046      143.19998     -10225.846      465            53813.555      0.0087966475 
    466000  -10366.002      138.44662     -10227.555      466            53926.938      0.0088196365 
    467000  -10361.658      126.67349     -10234.984      467            54040.398      0.0088136881 
    468000  -10364.36       141.21963     -10223.141      468            54154.241      0.0087840343 
    469000  -10362.821      130.52189     -10232.299      469            54268.096      0.0087831299 
    470000  -10364.009      135.45539     -10228.553      470            54382.248      0.0087602272 
    471000  -10368.829      129.8636      -10238.966      471            54497.079      0.0087084543 
    472000  -10366.64       132.81643     -10233.824      472            54611.621      0.0087303929 
    473000  -10366.252      127.23621     -10239.016      473            54726.405      0.0087120101 
    474000  -10363.825      134.03367     -10229.792      474            54841.17       0.008713504  
    475000  -10366.447      131.07458     -10235.372      475            54956.324      0.0086840291 
    476000  -10369.408      130.33339     -10239.074      476            55072.259      0.008625484  
    477000  -10364.823      137.81086     -10227.012      477            55189.946      0.0084970961 
    478000  -10365.082      127.73212     -10237.35       478            55309.127      0.0083906497 
    479000  -10364.649      137.35697     -10227.292      479            55425.971      0.0085583545 
    480000  -10359.91       128.8659      -10231.044      480            55539.923      0.0087756985 
    481000  -10363.08       131.75522     -10231.325      481            55653.309      0.0088194311 
    482000  -10365.639      136.72659     -10228.913      482            55767.455      0.0087607042 
    483000  -10370.802      139.67873     -10231.123      483            55880.814      0.0088215278 
    484000  -10365.96       131.5947      -10234.366      484            55995.045      0.0087541304 
    485000  -10365.449      130.69801     -10234.751      485            56108.509      0.0088134351 
    486000  -10364.248      133.74435     -10230.504      486            56223.192      0.0087196524 
    487000  -10365.622      131.16969     -10234.452      487            56337.405      0.0087555477 
    488000  -10365.918      128.9308      -10236.988      488            56454.382      0.0085487413 
    489000  -10365.436      135.31372     -10230.122      489            56574.245      0.0083428618 
    490000  -10367.335      136.7546      -10230.581      490            56690.231      0.0086216785 
    491000  -10363.615      129.29828     -10234.317      491            56805.246      0.0086945195 
    492000  -10365.228      130.64276     -10234.585      492            56920.827      0.0086519296 
    493000  -10359.267      126.51052     -10232.756      493            57035.85       0.0086939666 
    494000  -10366.793      132.85389     -10233.939      494            57151.43       0.008651997  
    495000  -10364.258      131.55824     -10232.7        495            57266.117      0.0087193615 
    496000  -10365.909      136.31066     -10229.599      496            57379.875      0.0087906145 
    497000  -10365.766      131.04621     -10234.72       497            57493.919      0.0087685574 
    498000  -10363.735      141.90216     -10221.833      498            57607.66       0.0087919156 
    499000  -10369.65       135.89809     -10233.752      499            57721.414      0.0087908833 
    500000  -10362.265      139.71115     -10222.554      500            57835.219      0.0087869697 
    501000  -10367.778      134.93731     -10232.84       501            57950.4        0.0086819364 
    502000  -10365.166      129.71138     -10235.454      502            58066.916      0.0085825658 
    503000  -10366.098      136.59475     -10229.503      503            58186.875      0.0083361775 
    504000  -10365.117      127.53712     -10237.58       504            58304.916      0.0084716006 
    505000  -10365.764      142.96553     -10222.798      505            58421.06       0.0086100093 
    506000  -10364.927      130.22835     -10234.698      506            58534.992      0.0087771633 
    507000  -10362.705      138.7439      -10223.961      507            58648.62       0.0088006726 
    508000  -10368.119      140.9407      -10227.178      508            58762.138      0.0088091489 
    509000  -10371.222      132.19336     -10239.028      509            58876.163      0.0087700524 
    510000  -10363.316      131.1257      -10232.19       510            58991.534      0.0086676642 
    511000  -10369.456      138.1462      -10231.309      511            59106.712      0.0086822266 
    512000  -10363.657      136.82825     -10226.829      512            59221.488      0.008712566  
    513000  -10372.209      136.61074     -10235.598      513            59336.457      0.0086980667 
    514000  -10366.998      134.30312     -10232.695      514            59450.158      0.0087949803 
    515000  -10364.562      130.65974     -10233.902      515            59565.345      0.0086815106 
    516000  -10364.833      137.46938     -10227.364      516            59678.32       0.008851558  
    517000  -10370.848      128.96598     -10241.882      517            59791.854      0.0088079021 
    518000  -10365.919      135.36839     -10230.551      518            59904.59       0.0088703134 
    519000  -10365.137      134.2747      -10230.862      519            60017.783      0.0088344285 
    520000  -10366.032      133.41924     -10232.613      520            60131.069      0.0088272289 
    521000  -10368.868      129.43318     -10239.434      521            60245.252      0.0087578924 
    522000  -10367.233      140.14484     -10227.088      522            60359.219      0.0087744158 
    523000  -10361.878      135.27524     -10226.602      523            60473.21       0.008772609  
    524000  -10363.425      132.09737     -10231.328      524            60587.411      0.0087565566 
    525000  -10365.469      134.07446     -10231.395      525            60702.28       0.0087055398 
    526000  -10364.971      133.08197     -10231.889      526            60817.484      0.0086802646 
    527000  -10357.49       139.33269     -10218.158      527            60932.306      0.0087090885 
    528000  -10365.691      134.25924     -10231.432      528            61046.94       0.0087234701 
    529000  -10365.941      135.27725     -10230.663      529            61160.954      0.0087708489 
    530000  -10362.54       132.79446     -10229.745      530            61275.198      0.0087531507 
    531000  -10364.589      131.36408     -10233.225      531            61391.17       0.0086228209 
    532000  -10361.465      133.01301     -10228.452      532            61505.691      0.0087320252 
    533000  -10373.217      133.96512     -10239.252      533            61620.442      0.0087145219 
    534000  -10362.453      132.5709      -10229.882      534            61734.326      0.0087808708 
    535000  -10360.589      134.95256     -10225.636      535            61850.458      0.0086108733 
    536000  -10363.319      130.00382     -10233.315      536            61966.698      0.0086028763 
    537000  -10364.417      131.64559     -10232.771      537            62081.352      0.0087219182 
    538000  -10365.234      129.6154      -10235.619      538            62195.783      0.0087388656 
    539000  -10367.713      131.56726     -10236.145      539            62310.138      0.0087447066 
    540000  -10366.686      130.55596     -10236.13       540            62425.565      0.0086634877 
    541000  -10366.504      135.49656     -10231.007      541            62540.997      0.0086630755 
    542000  -10363.279      136.29118     -10226.988      542            62656.426      0.0086633631 
    543000  -10365.881      139.26445     -10226.617      543            62770.432      0.0087714938 
    544000  -10368.538      136.66304     -10231.875      544            62884.523      0.0087648767 
    545000  -10367.818      128.54689     -10239.271      545            62998.657      0.0087616281 
    546000  -10363.792      133.82238     -10229.97       546            63112.649      0.0087725755 
    547000  -10368.598      129.77906     -10238.819      547            63226.918      0.0087513115 
    548000  -10363.364      135.73877     -10227.625      548            63340.923      0.008771547  
    549000  -10367.053      141.18228     -10225.87       549            63454.926      0.0087716799 
    550000  -10371.351      129.78037     -10241.57       550            63569.132      0.0087561231 
    551000  -10360.8        132.66072     -10228.139      551            63682.786      0.008798575  
    552000  -10370.651      129.32786     -10241.323      552            63797.266      0.0087351426 
    553000  -10363.785      134.60179     -10229.183      553            63910.102      0.0088624714 
    554000  -10369.174      129.10433     -10240.07       554            64022.853      0.008869082  
    555000  -10362.405      131.14697     -10231.259      555            64136.7        0.0087836824 
    556000  -10368.518      130.96981     -10237.548      556            64249.924      0.0088320944 
    557000  -10365.374      137.03879     -10228.335      557            64363.529      0.0088024335 
    558000  -10365.012      127.53307     -10237.478      558            64476.622      0.0088422932 
    559000  -10366.267      134.45328     -10231.813      559            64589.259      0.0088780423 
    560000  -10369.13       135.95996     -10233.17       560            64702.34       0.0088432589 
    561000  -10367.97       129.858       -10238.112      561            64815.385      0.0088460216 
    562000  -10372.518      139.25521     -10233.263      562            64928.406      0.0088478891 
    563000  -10360.992      137.89145     -10223.101      563            65042.747      0.0087457673 
    564000  -10370.737      134.70433     -10236.033      564            65156.729      0.0087733358 
    565000  -10363.03       134.20206     -10228.828      565            65271.245      0.00873236   
    566000  -10363.838      136.7075      -10227.13       566            65385          0.0087908538 
    567000  -10367.565      137.00398     -10230.561      567            65499.154      0.0087601177 
    568000  -10364.396      134.24846     -10230.148      568            65615.065      0.008627273  
    569000  -10367.581      135.03505     -10232.546      569            65731.596      0.0085813917 
    570000  -10364.526      139.5607      -10224.965      570            65847.612      0.0086195439 
    571000  -10367.876      132.03613     -10235.84       571            65964.889      0.0085267906 
    572000  -10364.12       137.3958      -10226.725      572            66081.781      0.0085549186 
    573000  -10365.692      128.15648     -10237.535      573            66198.568      0.0085626029 
    574000  -10365.822      135.17001     -10230.652      574            66315.145      0.0085779912 
    575000  -10368.375      131.58187     -10236.793      575            66432.617      0.0085126821 
    576000  -10364.597      138.6268      -10225.97       576            66548.788      0.0086080366 
    577000  -10370.002      135.82784     -10234.174      577            66665.185      0.0085912593 
    578000  -10367.875      133.62372     -10234.251      578            66783.185      0.008474589  
    579000  -10359.362      136.62289     -10222.739      579            66899.889      0.0085687154 
    580000  -10365.14       131.70375     -10233.436      580            67016.216      0.0085963991 
    581000  -10358.788      135.2672      -10223.52       581            67131.669      0.0086615917 
    582000  -10368.515      135.37572     -10233.14       582            67247.116      0.0086619679 
    583000  -10360.982      136.82409     -10224.158      583            67362.509      0.0086660527 
    584000  -10367.462      133.42896     -10234.033      584            67476.367      0.00878282   
    585000  -10360.644      135.8826      -10224.761      585            67589.853      0.0088116874 
    586000  -10367.348      132.30599     -10235.042      586            67703.485      0.0088003418 
    587000  -10360.783      138.81722     -10221.966      587            67817.913      0.0087390706 
    588000  -10365.021      134.12791     -10230.893      588            67931.918      0.0087716067 
    589000  -10363.905      135.95188     -10227.953      589            68045.838      0.008778095  
    590000  -10369.387      134.91717     -10234.47       590            68160.678      0.0087077567 
    591000  -10360.278      131.52098     -10228.757      591            68275.149      0.0087358253 
    592000  -10367.202      138.04953     -10229.152      592            68389.425      0.0087507362 
    593000  -10368.336      130.06767     -10238.268      593            68503.466      0.0087687981 
    594000  -10363.663      133.51096     -10230.152      594            68618.824      0.0086686399 
    595000  -10367.197      128.91109     -10238.286      595            68731.89       0.0088444154 
    596000  -10360.698      130.14133     -10230.556      596            68844.654      0.0088680622 
    597000  -10365.528      132.32979     -10233.198      597            68958.347      0.0087956469 
    598000  -10367.315      130.66716     -10236.648      598            69071.569      0.008832143  
    599000  -10360.288      134.93868     -10225.35       599            69186.154      0.008727196  
    600000  -10365.175      133.18757     -10231.987      600            69300.576      0.0087395331 
    601000  -10365.171      136.46769     -10228.703      601            69416.109      0.00865554   
    602000  -10370.578      135.35953     -10235.218      602            69529.948      0.0087843219 
    603000  -10365.473      136.33283     -10229.14       603            69644.123      0.0087585129 
    604000  -10370.967      132.04372     -10238.924      604            69758.816      0.0087189249 
    605000  -10358.154      133.34446     -10224.809      605            69872.57       0.008790869  
    606000  -10368.233      130.08364     -10238.149      606            69986.452      0.0087810308 
    607000  -10361.36       131.2802      -10230.08       607            70100.646      0.0087570798 
    608000  -10371.524      131.63959     -10239.885      608            70215.321      0.0087203033 
    609000  -10365.564      136.36039     -10229.204      609            70329.748      0.0087391935 
    610000  -10365.191      129.47768     -10235.714      610            70444.389      0.0087228397 
    611000  -10363.776      139.65975     -10224.116      611            70559.761      0.0086676453 
    612000  -10368.08       135.55724     -10232.523      612            70678.489      0.0084225929 
    613000  -10366.025      138.07311     -10227.952      613            70797.4        0.0084096815 
    614000  -10368.246      129.73754     -10238.508      614            70916.317      0.0084091636 
    615000  -10368.695      140.93926     -10227.756      615            71036.091      0.0083491201 
    616000  -10371.449      132.0878      -10239.361      616            71153.313      0.008530817  
    617000  -10361.647      136.23696     -10225.41       617            71268.509      0.0086807989 
    618000  -10364.231      128.88522     -10235.345      618            71383.972      0.0086608134 
    619000  -10362.461      135.11623     -10227.345      619            71498.902      0.0087009362 
    620000  -10372.539      131.23566     -10241.304      620            71614.542      0.0086475539 
    621000  -10366.73       134.77569     -10231.954      621            71728.556      0.0087708053 
    622000  -10368.099      131.77584     -10236.323      622            71842.347      0.0087880666 
    623000  -10364.978      132.04832     -10232.93       623            71956.841      0.0087341018 
    624000  -10364.854      135.92129     -10228.933      624            72069.933      0.0088423545 
    625000  -10365.112      134.67319     -10230.439      625            72184.071      0.0087612802 
    626000  -10360.045      134.00885     -10226.036      626            72297.143      0.0088439561 
    627000  -10362.683      133.88797     -10228.795      627            72409.87       0.0088709729 
    628000  -10366.575      131.85377     -10234.721      628            72523.394      0.0088086879 
    629000  -10362.149      135.56635     -10226.583      629            72637.498      0.0087639443 
    630000  -10366.525      131.61018     -10234.915      630            72752.949      0.0086617472 
    631000  -10361.371      133.45298     -10227.918      631            72868.486      0.008655218  
    632000  -10366.475      130.03982     -10236.435      632            72983.595      0.0086874021 
    633000  -10367.733      141.42644     -10226.306      633            73098.819      0.008678773  
    634000  -10363.828      128.95153     -10234.876      634            73212.838      0.0087704377 
    635000  -10360.529      134.4611      -10226.068      635            73325.852      0.0088484526 
    636000  -10365.038      131.3292      -10233.709      636            73440.433      0.0087274351 
    637000  -10361.755      133.17173     -10228.583      637            73554.151      0.0087937216 
    638000  -10363.222      130.75538     -10232.467      638            73667.792      0.0087996073 
    639000  -10365.283      136.54853     -10228.734      639            73782.557      0.008713441  
    640000  -10371.721      126.70803     -10245.013      640            73896.815      0.0087521766 
    641000  -10362.704      131.47996     -10231.224      641            74011.962      0.0086845349 
    642000  -10364.3        128.73956     -10235.561      642            74126.822      0.0087062575 
    643000  -10365.611      136.77982     -10228.831      643            74240.951      0.0087619877 
    644000  -10365.182      131.60361     -10233.578      644            74355.618      0.0087209059 
    645000  -10369.445      139.76369     -10229.681      645            74470.949      0.0086707276 
    646000  -10368.577      136.51503     -10232.062      646            74586.806      0.0086313282 
    647000  -10364.556      135.29092     -10229.265      647            74701.996      0.0086813185 
    648000  -10366.588      132.80715     -10233.781      648            74817.65       0.0086464752 
    649000  -10368.524      138.48468     -10230.04       649            74934.187      0.0085809222 
    650000  -10369.209      131.32057     -10237.889      650            75053.309      0.0083947654 
    651000  -10365.939      133.59395     -10232.345      651            75171.988      0.0084260943 
    652000  -10364.713      136.18069     -10228.532      652            75292.367      0.0083071114 
    653000  -10370.997      131.75917     -10239.238      653            75414.328      0.0081993402 
    654000  -10366.222      139.65701     -10226.565      654            75533.354      0.008401525  
    655000  -10375.215      131.82409     -10243.391      655            75650.563      0.0085317934 
    656000  -10363.596      131.4489      -10232.147      656            75766.915      0.008594605  
    657000  -10366.069      132.88892     -10233.18       657            75881.56       0.0087225596 
    658000  -10362.771      136.37107     -10226.4        658            75995.604      0.0087685483 
    659000  -10365.379      130.11155     -10235.268      659            76110.409      0.0087103833 
    660000  -10362.717      132.57214     -10230.144      660            76225.109      0.0087184072 
    661000  -10365.761      131.0416      -10234.72       661            76340.483      0.0086674526 
    662000  -10358.583      135.66329     -10222.92       662            76455.472      0.0086965101 
    663000  -10365.836      132.2077      -10233.628      663            76569.74       0.0087513623 
    664000  -10362.99       134.4032      -10228.587      664            76683.034      0.0088265803 
    665000  -10362.102      128.33866     -10233.763      665            76796.623      0.008803651  
    666000  -10366.012      127.25026     -10238.762      666            76909.332      0.0088724665 
    667000  -10368.305      132.9798      -10235.325      667            77023.192      0.0087826721 
    668000  -10362.213      138.31078     -10223.902      668            77136.807      0.0088016858 
    669000  -10372.478      137.83966     -10234.639      669            77250.803      0.0087722056 
    670000  -10365.2        139.29728     -10225.903      670            77366.026      0.008678863  
    671000  -10374.328      136.18315     -10238.144      671            77480.634      0.0087253636 
    672000  -10362.917      135.2665      -10227.651      672            77597.023      0.008591857  
    673000  -10363.641      130.79598     -10232.845      673            77711.247      0.0087547462 
    674000  -10367.605      137.04941     -10230.556      674            77825.912      0.0087210422 
    675000  -10368.957      136.87563     -10232.081      675            77939.633      0.0087934855 
    676000  -10366.049      139.22928     -10226.819      676            78054.274      0.008722907  
    677000  -10371.504      131.80426     -10239.7        677            78168          0.0087930377 
    678000  -10362.141      128.72283     -10233.418      678            78281.578      0.0088044943 
    679000  -10365.719      134.69955     -10231.019      679            78396.184      0.0087255895 
    680000  -10368.731      130.55932     -10238.171      680            78510.814      0.0087236803 
    681000  -10367.812      135.81897     -10231.993      681            78626.103      0.0086738506 
    682000  -10364.47       130.63313     -10233.837      682            78743.86       0.0084920813 
    683000  -10364.769      132.3658      -10232.403      683            78861.421      0.0085062061 
    684000  -10363.76       137.34307     -10226.417      684            78980.117      0.0084249209 
    685000  -10367.953      130.67233     -10237.28       685            79097.974      0.0084848047 
    686000  -10366.318      134.9782      -10231.34       686            79216.295      0.0084515913 
    687000  -10365.001      136.79755     -10228.203      687            79332.663      0.0085934677 
    688000  -10368.583      134.16215     -10234.421      688            79447.255      0.0087266112 
    689000  -10363.912      135.39475     -10228.517      689            79561.193      0.0087766604 
    690000  -10364.363      135.25947     -10229.104      690            79675.524      0.0087465359 
    691000  -10366.064      139.60703     -10226.457      691            79790.05       0.0087316974 
    692000  -10370.08       135.67337     -10234.406      692            79904.11       0.008767311  
    693000  -10355.553      127.6992      -10227.854      693            80018.21       0.0087642239 
    694000  -10366.181      135.14878     -10231.032      694            80132.438      0.0087544217 
    695000  -10367.343      134.96976     -10232.373      695            80244.947      0.0088881371 
    696000  -10365.403      133.56304     -10231.84       696            80357.738      0.0088660089 
    697000  -10364.828      134.85332     -10229.975      697            80470.583      0.0088616698 
    698000  -10363.658      133.2862      -10230.372      698            80584.469      0.0087807309 
    699000  -10371.584      131.23562     -10240.348      699            80697.908      0.0088153521 
    700000  -10364.037      134.74753     -10229.289      700            80811.75       0.0087840718 
    701000  -10371.132      134.85876     -10236.273      701            80925.911      0.0087595517 
    702000  -10364.745      135.11646     -10229.629      702            81042.669      0.0085647405 
    703000  -10365.998      135.1624      -10230.836      703            81160.953      0.0084541976 
    704000  -10367.103      132.34761     -10234.755      704            81280.503      0.0083647157 
    705000  -10363.998      133.34232     -10230.655      705            81396.446      0.0086249284 
    706000  -10368.676      129.9303      -10238.746      706            81509.997      0.0088066557 
    707000  -10364.854      135.10345     -10229.751      707            81623.415      0.0088168982 
    708000  -10373.689      137.00838     -10236.681      708            81737.977      0.0087289351 
    709000  -10368.212      131.68001     -10236.532      709            81851.413      0.0088154793 
    710000  -10362.844      135.70498     -10227.139      710            81964.646      0.0088314175 
    711000  -10368.908      132.43171     -10236.476      711            82077.944      0.0088262351 
    712000  -10367.319      132.22813     -10235.091      712            82190.808      0.0088602296 
    713000  -10364.742      135.73899     -10229.003      713            82303.708      0.0088573685 
    714000  -10357.584      135.01673     -10222.567      714            82417.601      0.0087801815 
    715000  -10366.253      131.81976     -10234.433      715            82531.716      0.008763127  
    716000  -10354.239      131.52771     -10222.711      716            82644.984      0.0088286324 
    717000  -10370.048      135.43144     -10234.616      717            82758.664      0.0087965918 
    718000  -10361.519      133.60899     -10227.91       718            82873.514      0.0087070306 
    719000  -10362.883      137.04033     -10225.843      719            82987.593      0.0087658673 
    720000  -10366.835      132.59515     -10234.24       720            83103.818      0.0086039481 
    721000  -10363.482      129.30481     -10234.178      721            83220.985      0.0085348514 
    722000  -10359.232      137.09033     -10222.142      722            83340.124      0.0083935648 
    723000  -10363.495      129.05044     -10234.445      723            83456.129      0.0086202967 
    724000  -10362.103      138.50482     -10223.598      724            83570.824      0.0087188083 
    725000  -10366.943      136.95477     -10229.988      725            83685.004      0.0087580542 
    726000  -10364.13       133.84666     -10230.284      726            83798.911      0.008779116  
    727000  -10368.87       130.433       -10238.437      727            83911.897      0.0088506111 
    728000  -10364.137      136.63861     -10227.499      728            84024.883      0.0088506882 
    729000  -10371.16       135.52512     -10235.635      729            84138.831      0.008775952  
    730000  -10363.99       141.2894      -10222.701      730            84253.451      0.0087244991 
    731000  -10365.246      135.02858     -10230.218      731            84368.198      0.0087147885 
    732000  -10359.879      133.58829     -10226.291      732            84482.982      0.0087120413 
    733000  -10362.089      130.7221      -10231.367      733            84598.387      0.0086651048 
    734000  -10369.624      135.90195     -10233.722      734            84715.248      0.0085572187 
    735000  -10363.514      135.88566     -10227.628      735            84834.411      0.0083918553 
    736000  -10361.662      132.27031     -10229.391      736            84951.999      0.0085042799 
    737000  -10372.506      132.89325     -10239.613      737            85066.524      0.008731674  
    738000  -10362.352      135.20526     -10227.147      738            85181.146      0.0087243157 
    739000  -10367.239      133.88175     -10233.357      739            85295.692      0.0087301076 
    740000  -10358.463      132.9145      -10225.548      740            85411.255      0.0086533179 
    741000  -10367.95       133.26544     -10234.685      741            85525.566      0.0087480641 
    742000  -10364.367      136.1822      -10228.185      742            85640.082      0.008732436  
    743000  -10368.387      137.73923     -10230.648      743            85753.682      0.0088027907 
    744000  -10368.3        133.74293     -10234.558      744            85867.578      0.0087799647 
    745000  -10365.702      136.93947     -10228.762      745            85981.623      0.008768457  
    746000  -10361.59       136.47618     -10225.114      746            86095.862      0.00875356   
    747000  -10368.609      131.9815      -10236.627      747            86209.591      0.0087928098 
[...]
    888000  -10360.424      138.40133     -10222.022      888            102475.77      0.0088265855 
    889000  -10367.081      135.36858     -10231.712      889            102590.1       0.0087463363 
    890000  -10362.965      135.18984     -10227.775      890            102704.56      0.0087367235 
    891000  -10370.582      132.55871     -10238.023      891            102819.47      0.0087021495 
    892000  -10364.78       132.47116     -10232.308      892            102933.01      0.0088076485 
    893000  -10365.085      127.76448     -10237.321      893            103047.55      0.0087303967 
    894000  -10368.018      135.04691     -10232.972      894            103162.25      0.0087186132 
    895000  -10367.426      135.81262     -10231.613      895            103277.13      0.0087048055 
    896000  -10359.259      137.02776     -10222.231      896            103395.49      0.0084490615 
    897000  -10364.887      130.1426      -10234.745      897            103513.91      0.0084440007 
    898000  -10359.736      133.90291     -10225.833      898            103632         0.008468664  
    899000  -10366.914      133.95531     -10232.959      899            103747.56      0.0086529632 
    900000  -10362.637      135.30683     -10227.33       900            103861.74      0.0087585396 
    901000  -10361.842      131.9705      -10229.872      901            103976.28      0.0087306066 
    902000  -10362.492      133.51036     -10228.982      902            104089.95      0.0087969286 
    903000  -10364.528      130.87814     -10233.65       903            104204.04      0.0087650075 
    904000  -10360.437      140.56537     -10219.871      904            104317.42      0.0088198976 
    905000  -10366.262      132.35059     -10233.911      905            104432.5       0.008689923  
    906000  -10363.383      128.45656     -10234.927      906            104548.2       0.0086430377 
    907000  -10367.676      133.16453     -10234.512      907            104662.84      0.0087229084 
    908000  -10362.967      130.04502     -10232.922      908            104777.72      0.0087043609 
    909000  -10367.012      135.53325     -10231.479      909            104890.98      0.0088297649 
    910000  -10373.518      133.94528     -10239.572      910            105004.27      0.0088263446 
    911000  -10362.854      135.3349      -10227.519      911            105117.6       0.0088242284 
    912000  -10358.393      134.96847     -10223.424      912            105230.99      0.008818721  
    913000  -10364.932      131.53201     -10233.4        913            105343.77      0.00886742   
    914000  -10362.253      136.88931     -10225.364      914            105458.92      0.008683828  
    915000  -10365.388      130.28908     -10235.099      915            105573.09      0.0087590597 
    916000  -10362.914      133.06382     -10229.85       916            105688.24      0.0086845675 
    917000  -10366.738      130.34378     -10236.395      917            105803.19      0.0086990153 
    918000  -10370.743      131.49498     -10239.248      918            105917.36      0.0087590624 
    919000  -10364.913      130.28222     -10234.631      919            106031.88      0.008732495  
    920000  -10365.393      138.35003     -10227.043      920            106145.7       0.0087857794 
    921000  -10361.883      128.22619     -10233.657      921            106260.13      0.0087383034 
    922000  -10367.758      132.6932      -10235.064      922            106375.07      0.0087003823 
    923000  -10360.101      136.72548     -10223.376      923            106489.3       0.0087540824 
    924000  -10371.57       135.40388     -10236.166      924            106604.52      0.0086790558 
    925000  -10356.6        132.07532     -10224.524      925            106718.49      0.0087747852 
    926000  -10367.682      135.97198     -10231.71       926            106832.24      0.0087910612 
    927000  -10365.16       124.91937     -10240.24       927            106946.26      0.0087700814 
    928000  -10363.181      134.47706     -10228.704      928            107059.74      0.0088122766 
    929000  -10370.376      129.9981      -10240.378      929            107173.13      0.0088192028 
    930000  -10362.335      135.43032     -10226.904      930            107286.71      0.00880421   
    931000  -10364.382      129.31242     -10235.07       931            107400.63      0.0087785518 
    932000  -10355.185      131.47659     -10223.709      932            107514.38      0.0087911038 
    933000  -10368.997      132.50296     -10236.494      933            107629.86      0.0086590956 
    934000  -10363.172      131.62007     -10231.552      934            107746.17      0.0085975786 
    935000  -10357.626      135.41619     -10222.21       935            107865.63      0.0083711603 
    936000  -10367.159      134.76689     -10232.393      936            107984.53      0.0084105571 
    937000  -10370.916      130.25372     -10240.662      937            108102.01      0.0085119967 
    938000  -10364.871      134.79161     -10230.08       938            108219.01      0.0085468025 
    939000  -10367.652      134.86424     -10232.788      939            108333.31      0.0087494902 
    940000  -10366.552      137.71364     -10228.838      940            108447.01      0.0087946272 
    941000  -10366.274      133.57031     -10232.704      941            108561.36      0.0087449321 
    942000  -10365.184      135.92143     -10229.263      942            108674.84      0.0088125525 
    943000  -10369.966      138.5765      -10231.39       943            108789.84      0.0086959244 
    944000  -10366.906      134.85326     -10232.053      944            108904.39      0.008729161  
    945000  -10361.3        130.19937     -10231.101      945            109019.71      0.0086717707 
    946000  -10368.484      132.35771     -10236.126      946            109134.08      0.0087437417 
    947000  -10361.599      130.24563     -10231.353      947            109249.13      0.008691707  
    948000  -10366.764      134.74719     -10232.017      948            109364.94      0.0086351596 
    949000  -10369.335      132.59472     -10236.74       949            109479.34      0.008740706  
    950000  -10367.732      138.88055     -10228.851      950            109593.6       0.0087522059 
    951000  -10371.964      131.76359     -10240.2        951            109707.63      0.0087698606 
    952000  -10359.712      128.64416     -10231.068      952            109821.64      0.0087709381 
    953000  -10367.827      134.26342     -10233.564      953            109934.74      0.0088416232 
    954000  -10362.366      137.26188     -10225.104      954            110048.22      0.0088120947 
    955000  -10371.073      139.34527     -10231.728      955            110161.96      0.0087921351 
    956000  -10366.579      141.24028     -10225.339      956            110275.46      0.0088101896 
    957000  -10371.488      135.55606     -10235.932      957            110388.65      0.0088353521 
    958000  -10364.114      138.38013     -10225.733      958            110502.1       0.0088142159 
    959000  -10367.075      129.97226     -10237.103      959            110617.53      0.0086635065 
    960000  -10365.745      139.10107     -10226.644      960            110732.92      0.008666265  
    961000  -10369.522      135.92003     -10233.602      961            110849.52      0.0085759145 
    962000  -10368.008      134.26321     -10233.745      962            110968.87      0.0083786092 
    963000  -10360.811      134.04794     -10226.763      963            111088.8       0.0083384608 
    964000  -10367.488      128.54953     -10238.939      964            111206.4       0.0085036001 
    965000  -10365.488      134.43747     -10231.051      965            111321.19      0.0087112135 
    966000  -10365.949      132.62433     -10233.325      966            111434.73      0.0088077304 
    967000  -10365.053      133.65691     -10231.396      967            111549.02      0.0087493546 
    968000  -10370.43       130.72131     -10239.708      968            111662.54      0.0088093836 
    969000  -10357.556      135.70064     -10221.855      969            111776.51      0.0087737326 
    970000  -10366.988      134.36179     -10232.626      970            111890.74      0.0087544405 
    971000  -10360.849      140.36476     -10220.485      971            112004.71      0.0087741062 
    972000  -10366.069      134.38419     -10231.684      972            112119.05      0.0087462042 
    973000  -10370.441      131.09177     -10239.349      973            112233.6       0.008729938  
    974000  -10359.375      127.07323     -10232.301      974            112351.34      0.0084928081 
    975000  -10367.538      130.59963     -10236.938      975            112469.03      0.008497196  
    976000  -10368.067      140.23604     -10227.831      976            112583.19      0.0087595057 
    977000  -10368.074      137.2016      -10230.872      977            112698.26      0.0086902872 
    978000  -10363.947      133.84109     -10230.105      978            112812.54      0.0087506202 
    979000  -10362.553      129.55371     -10233          979            112928.66      0.0086121404 
    980000  -10360.762      133.93825     -10226.824      980            113043.4       0.0087149582 
    981000  -10365.908      135.67999     -10230.228      981            113157.83      0.0087388269 
    982000  -10367.883      132.10809     -10235.775      982            113272.09      0.0087518759 
    983000  -10368.253      137.22906     -10231.024      983            113390.53      0.0084435294 
    984000  -10369.929      135.13252     -10234.797      984            113508.75      0.0084583353 
    985000  -10366.068      137.4123      -10228.656      985            113623.05      0.0087492606 
    986000  -10370.494      130.88174     -10239.612      986            113736.79      0.008792332  
    987000  -10367.565      138.18086     -10229.385      987            113850.65      0.0087823996 
    988000  -10356.769      131.84783     -10224.921      988            113965.03      0.0087427648 
    989000  -10368.916      137.7832      -10231.132      989            114078.06      0.008847146  
    990000  -10373.138      136.08799     -10237.05       990            114191.53      0.0088128335 
    991000  -10367.622      138.28446     -10229.338      991            114303.88      0.0089008119 
    992000  -10368.467      127.85546     -10240.611      992            114416.77      0.0088579635 
    993000  -10370.231      139.66596     -10230.565      993            114529.78      0.0088487638 
    994000  -10359.505      132.70213     -10226.803      994            114644.91      0.0086864031 
    995000  -10366.012      132.44715     -10233.565      995            114763.22      0.0084523295 
    996000  -10374.488      129.0417      -10245.446      996            114876.98      0.0087899262 
    997000  -10365.387      135.48435     -10229.903      997            114989.26      0.0089063584 
    998000  -10367.192      129.13732     -10238.055      998            115101.63      0.0088991915 
    999000  -10364.919      132.38093     -10232.538      999            115214.92      0.0088271993 
   1000000  -10370.905      132.86751     -10238.037      1000           115328.95      0.0087696174 
Loop time of 115329 on 16 procs for 1000000 steps with 1152 atoms

Performance: 0.749 ns/day, 32.036 hours/ns, 8.671 timesteps/s, 9.989 katom-step/s
99.3% CPU use with 16 MPI tasks x 1 OpenMP threads

MPI task timing breakdown:
Section |  min time  |  avg time  |  max time  |%varavg| %total
---------------------------------------------------------------
Pair    | 32295      | 34230      | 35279      | 434.9 | 29.68
Neigh   | 354.33     | 385.65     | 424.05     | 107.1 |  0.33
Comm    | 1763.9     | 2807       | 4594.7     |1465.1 |  2.43
Output  | 0.17531    | 0.18752    | 0.35192    |   9.8 |  0.00
Modify  | 77752      | 77897      | 78151      |  53.5 | 67.54
Other   |            | 9.043      |            |       |  0.01

Nlocal:             72 ave          77 max          67 min
Histogram: 1 0 0 1 3 6 3 1 0 1
Nghost:         846.25 ave         858 max         833 min
Histogram: 2 0 1 1 4 1 2 1 1 3
Neighs:              0 ave           0 max           0 min
Histogram: 16 0 0 0 0 0 0 0 0 0
FullNghs:      6722.38 ave        7178 max        6124 min
Histogram: 1 0 0 2 1 4 6 0 0 2

Total # of neighbors = 107558
Ave neighs/atom = 93.366319
Neighbor list builds = 2000000
Dangerous builds = 0

unfix temp

min_style cg
fix 0 all box/relax aniso 0 vmax 0.001
minimize 0 0 100000 100000
Per MPI rank memory allocation (min/avg/max) = 5.539 | 5.542 | 5.543 Mbytes
   Step         PotEng         KinEng         TotEng          Time           CPU           T/CPU     
   1000000  -10370.905      132.86751     -10238.037      1000           0              0            
   1001000  -10507.63       132.86751     -10374.763      1001           52.046958      0.019213419  
   1002000  -10509.836      132.86751     -10376.968      1002           119.04952      0.014924803  
   1003000  -10509.841      132.86751     -10376.973      1003           188.86793      0.01432287   
   1004000  -10509.841      132.86751     -10376.974      1004           258.98602      0.014261655  
   1005000  -10509.841      132.86751     -10376.974      1005           328.94916      0.014293241  
   1006000  -10509.841      132.86751     -10376.974      1006           398.85236      0.014305497  
   1007000  -10509.841      132.86751     -10376.974      1007           468.51891      0.01435409   
   1008000  -10509.841      132.86751     -10376.974      1008           538.06702      0.014378536  
   1009000  -10509.841      132.86751     -10376.974      1009           607.56478      0.014388954  
   1010000  -10509.841      132.86751     -10376.974      1010           677.05755      0.014389985  
   1011000  -10509.841      132.86751     -10376.974      1011           746.79661      0.014339166  
   1012000  -10509.841      132.86751     -10376.974      1012           813.89456      0.014903586  
   1013000  -10509.841      132.86751     -10376.974      1013           881.22351      0.014852451  
   1014000  -10509.841      132.86751     -10376.974      1014           948.81874      0.014793943  
   1015000  -10509.841      132.86751     -10376.974      1015           1015.9597      0.014894036  
   1016000  -10509.841      132.86751     -10376.974      1016           1083.1458      0.014884042  
   1017000  -10509.841      132.86751     -10376.974      1017           1150.5009      0.014846674  
   1018000  -10509.841      132.86751     -10376.974      1018           1217.8426      0.014849654  
   1019000  -10509.841      132.86751     -10376.974      1019           1281.7505      0.015647503  
   1020000  -10509.841      132.86751     -10376.974      1020           1345.4507      0.015698548  
   1021000  -10509.841      132.86751     -10376.974      1021           1409.881       0.015520629  
   1022000  -10509.841      132.86751     -10376.974      1022           1473.8269      0.015638235  
   1023000  -10509.841      132.86751     -10376.974      1023           1537.4721      0.0157121    
   1024000  -10509.841      132.86751     -10376.974      1024           1601.3433      0.015656512  
   1025000  -10509.841      132.86751     -10376.974      1025           1665.2233      0.015654355  
   1026000  -10509.841      132.86751     -10376.974      1026           1728.9326      0.015696299  
   1027000  -10509.841      132.86751     -10376.974      1027           1792.8427      0.015646959  
   1028000  -10509.841      132.86751     -10376.974      1028           1859.2508      0.015058405  
   1029000  -10509.841      132.86751     -10376.974      1029           1925.7135      0.01504603   
   1030000  -10509.841      132.86751     -10376.974      1030           1992.5501      0.014961884  
   1031000  -10509.841      132.86751     -10376.974      1031           2059.2618      0.014989859  
   1032000  -10509.841      132.86751     -10376.974      1032           2125.4631      0.015105447  
   1033000  -10509.841      132.86751     -10376.974      1033           2191.9442      0.015041882  
   1034000  -10509.841      132.86751     -10376.974      1034           2257.9989      0.015138948  
   1035000  -10509.841      132.86751     -10376.974      1035           2324.0119      0.015148536  
   1036000  -10509.841      132.86751     -10376.974      1036           2389.8434      0.015190296  
   1037000  -10509.841      132.86751     -10376.974      1037           2455.6055      0.015206335  
   1038000  -10509.841      132.86751     -10376.974      1038           2521.6914      0.015131825  
   1039000  -10509.841      132.86751     -10376.974      1039           2587.6244      0.015166899  
   1040000  -10509.841      132.86751     -10376.974      1040           2653.0965      0.015273689  
   1041000  -10509.841      132.86751     -10376.974      1041           2718.8125      0.015216989  
   1042000  -10509.841      132.86751     -10376.974      1042           2784.1739      0.015299554  
   1043000  -10509.841      132.86751     -10376.974      1043           2849.8079      0.015236013  
   1044000  -10509.841      132.86751     -10376.974      1044           2915.0906      0.015317976  
   1045000  -10509.841      132.86751     -10376.974      1045           2980.1596      0.015368301  
   1046000  -10509.841      132.86751     -10376.974      1046           3045.7669      0.015242227  
   1047000  -10509.841      132.86751     -10376.974      1047           3110.8528      0.015364309  
   1048000  -10509.841      132.86751     -10376.974      1048           3176.1229      0.015320935  
   1049000  -10509.841      132.86751     -10376.974      1049           3241.2356      0.015358     
   1050000  -10509.841      132.86751     -10376.974      1050           3306.4145      0.015342387  
   1050324  -10509.841      132.86751     -10376.974      1050.324       3327.5398      0.015337052  
Loop time of 3327.54 on 16 procs for 50324 steps with 1152 atoms

99.4% CPU use with 16 MPI tasks x 1 OpenMP threads

Minimization stats:
  Stopping criterion = max force evaluations
  Energy initial, next-to-last, final = 
     -10370.9045942335  -10509.8414645562  -10509.8414645562
  Force two-norm initial, final = 196.90492 2.0619757e-11
  Force max component initial, final = 114.15914 1.5517793e-11
  Final line search alpha, max atom move = 1 1.5517793e-11
  Iterations, force evaluations = 50324 100001

MPI task timing breakdown:
Section |  min time  |  avg time  |  max time  |%varavg| %total
---------------------------------------------------------------
Pair    | 2683.6     | 2934.8     | 3242.4     | 240.9 | 88.20
Neigh   | 0.00065977 | 0.0006894  | 0.00086619 |   0.0 |  0.00
Comm    | 31.477     | 267.63     | 590.83     | 916.7 |  8.04
Output  | 0.0064303  | 0.0070638  | 0.015793   |   2.7 |  0.00
Modify  | 0          | 0          | 0          |   0.0 |  0.00
Other   |            | 125.1      |            |       |  3.76

Nlocal:             72 ave          74 max          70 min
Histogram: 2 0 2 0 0 8 0 2 0 2
Nghost:         870.25 ave         883 max         852 min
Histogram: 2 1 1 1 2 1 1 0 2 5
Neighs:              0 ave           0 max           0 min
Histogram: 16 0 0 0 0 0 0 0 0 0
FullNghs:       7522.5 ave        7929 max        7275 min
Histogram: 3 2 0 2 5 1 2 0 0 1

Total # of neighbors = 120360
Ave neighs/atom = 104.47917
Neighbor list builds = 2
Dangerous builds = 0

write_data data.CSRO
System init for write_data ...

print "all done"
all done
Total wall time: 32:57:36
