LAMMPS data file via write_data, version 22 Dec 2022, timestep = 1050252

1152 atoms
5 atom types

0.0008962024707214831 14.778639048353867 xlo xhi
0.003929753865049498 15.672134644100971 ylo yhi
0.004515763155357251 68.25923348134263 zlo zhi

Masses

1 180.948
2 92.9064
3 50.9415
4 95.94
5 183.84

Atoms # atomic

1033 3 2.6021656651545473 2.5911315003956763 1.1884162009036412 3 0 1
1029 3 1.3669430356044359 3.4418182584889636 3.2923698353347457 3 0 1
1028 3 1.3761501441519977 0.8186981350126517 3.3001193362505887 3 0 1
1027 3 0.11039292202131126 1.7251318011754408 1.2166747786687353 3 0 1
1014 3 3.7811390234047453 1.6781002768065516 3.2910693329721945 3 0 1
1084 3 5.026335601476861 3.4553681935808647 1.1147035608659666 2 0 1
1083 3 5.053435434186523 0.8065731633277787 1.1235706018513827 2 0 1
1085 2 6.294350116120844 2.5671177987152385 3.2824865652939055 2 0 1
1068 3 7.553116330646884 1.6885245701703648 1.1025441386556327 2 0 1
1074 3 9.987497705648599 2.5782972847523666 1.1576557321265466 2 0 1
1070 3 8.802873524088374 3.451371751425703 3.2840504009286295 2 0 1
1069 3 8.790900411858617 0.8021742312645 3.2818266952489017 2 0 1
1051 3 12.441695463073225 3.4485090030975774 1.157266278778711 2 0 1
1050 3 12.451671093509997 0.8384453714111718 1.175645637495414 2 0 1
1052 3 13.708388033265013 2.5453280426205733 3.247107106337755 2 0 1
1044 3 11.209877986886855 1.6698023651751808 3.266037548885797 2 0 1
1048 3 13.691299334566285 5.179583703615085 7.5630996111536914 2 0 1
439 3 2.5844829261359097 7.766600742512114 1.159173413043055 3 -1 1
1034 3 2.5844255636171347 5.176459353445227 1.1712526247022912 3 0 1
433 3 1.3542391714576487 6.04135790372563 3.2795092955669105 3 -1 1
1035 3 3.7921069354348127 4.318262816484715 3.2909507996748717 3 0 1
1089 3 5.043137330636949 6.035595784986307 1.1662495208572456 2 -1 1
1086 3 6.278636177687879 5.223895324032334 3.290773928470972 2 0 1
426 3 3.808784894284458 6.9055521857492765 3.293044250716941 3 -1 1
494 3 6.278046738655912 7.762187488997334 3.295332070510536 2 -1 1
469 3 7.511351089337056 6.890198218206316 1.1673313807832473 2 -1 1
1088 3 7.526031289105175 4.321341791985922 1.13438312236892 2 0 1
1075 3 9.979781538378262 5.171973180319648 1.1582735299050728 2 0 1
470 3 8.744816372821003 6.042155471982662 3.29087523350276 2 -1 1
445 3 11.198274626423114 6.911226040075373 3.2748503461350187 2 -1 1
1055 3 0.12654448055630674 4.31661913256163 1.1606563819932825 3 0 1
432 3 0.12479318624537505 6.901345154707743 1.1492698789095392 3 -1 1
1076 3 11.186419897491435 4.321380300257072 3.24184779303191 2 0 1
453 3 13.65352764392878 7.767110215459048 3.2387943415003537 2 -1 1
451 3 12.44256118410222 6.040957462928643 1.1472670071693203 2 -1 1
1053 3 13.6798626643331 5.191561762117733 3.2522824502098935 2 0 1
1030 3 2.597328402799037 2.556293683636934 5.422046613418145 3 0 1
1023 3 1.373388300770517 3.426463468716591 7.5390501622497705 3 0 1
1022 3 1.3645835230901986 0.8197734085082896 7.536570631639353 3 0 1
1021 3 0.1681205868348596 1.668334536859769 5.419087062149296 3 0 1
446 3 12.435015506169746 6.09025820087653 5.4084532814266 2 -1 1
1078 3 5.04984069087686 0.8073464531593584 5.43749119940768 2 0 1
1079 3 5.030763670417505 3.4439237540929963 5.46254815924782 2 0 1
1080 3 6.288277457027599 2.5572850206454874 7.544972414444148 2 0 1
1011 3 3.8253941171234205 1.6894383200282497 7.539216875812464 3 0 1
1063 3 7.552998309611262 1.6757341441989186 5.45961578477674 2 0 1
1065 3 8.750724893916551 3.4239600309313682 7.549238740908458 2 0 1
1071 3 9.943094537495089 2.539873727734034 5.419983638467726 2 0 1
1064 3 8.745693829791533 0.817242210195789 7.5364210675104175 2 0 1
428 3 0.1265157294833248 6.857950766749244 5.401070203456697 3 -1 1
1040 3 11.204381248299079 1.6645782311662194 7.5586676232494545 2 0 1
1045 3 12.454783284211565 0.7602912999234684 5.41358450889815 2 0 1
1046 2 12.449509681881695 3.425006393444538 5.414431377972439 2 0 1
1047 3 13.710116235658104 2.533409285594751 7.581579722996332 2 0 1
429 3 1.3755686780622358 6.028883964371992 7.537185501837247 3 -1 1
1031 3 2.589588906132136 5.163465261717899 5.4162486236792775 3 0 1
1054 3 0.18186864877359657 4.314656248307938 5.413718338687849 3 0 1
425 3 3.838532614940413 6.887888188226806 7.531421284238381 3 -1 1
1032 3 3.8300776228138047 4.285961535314733 7.5376773919788 3 0 1
487 3 5.048539999912267 6.031939174186815 5.419379191680881 2 -1 1
1081 3 6.290486753421173 5.159566621621379 7.539842431651371 2 0 1
489 3 6.286061729750016 7.753864293119001 7.529140132131951 2 -1 1
472 3 9.97037179099579 7.776328075484213 5.411608813084936 2 -1 1
1072 3 9.957861183288134 5.186506817823936 5.419951850693889 2 0 1
1087 3 7.531959440811005 4.320413107240426 5.441350744792904 2 0 1
465 3 7.521082611731846 6.9012833830010045 5.418515358908772 2 -1 1
466 3 8.747946727805019 6.027779140380162 7.533516152447169 2 -1 1
448 3 13.656836584329128 7.745759486028454 7.531403273525681 2 -1 1
443 3 11.212103520387677 6.898784274019145 7.5354547211751655 2 -1 1
1073 3 11.190753057837213 4.303546932487943 7.590205405575046 2 0 1
477 3 9.975241924267396 7.75226950058672 1.16923579599503 2 -1 1
435 3 2.6132848810258054 7.755798639662117 5.410115944810032 3 -1 1
1024 3 2.605847590240988 2.5616701482116966 9.647725336837171 3 0 1
1108 3 1.3997416237204936 3.4543012843830283 11.750419304920179 3 0 1
1107 3 1.398116187567604 0.7992879117477968 11.724627912310154 3 0 1
1106 3 0.13405133070046682 1.6889503040872034 9.648164355936164 3 0 1
1097 3 3.8319500582555013 1.688442105325401 11.772614433549904 3 0 1
1148 3 5.059015187961354 3.4191081765621663 9.653500176370216 2 0 1
1077 3 5.046624723073889 0.8262515413555673 9.661106746822112 2 0 1
1149 3 6.27121775337066 2.5511805012893918 11.77869785370304 2 0 1
1136 3 7.50244066883639 1.6856592807015227 9.661843420269975 2 0 1
1066 3 9.969587441130402 2.547312479330052 9.664014471043696 2 0 1
1138 3 8.71959844908883 3.419730427845169 11.779884467770694 2 0 1
1137 3 8.727344602979219 0.8191695987064224 11.781866077706795 2 0 1
526 3 13.680364712365511 7.822664941136464 16.066773197652374 2 -1 1
1120 3 11.16334690631763 1.7005346000580253 11.732966604763133 2 0 1
1125 3 12.444670381488221 3.4225328925726557 9.661416911982931 2 0 1
1041 3 12.42863024616787 0.8097083542604968 9.647636748786882 2 0 1
1126 3 13.661907220558325 2.5899160004876793 11.717084041508278 2 0 1
1025 3 2.61652894875077 5.16011683784424 9.651404924080257 3 0 1
513 3 1.3904746476090222 6.045220593748524 11.778183059404524 3 -1 1
1049 3 0.15004618110509851 4.302645996130098 9.659148654733924 3 0 1
427 3 0.15171278593573007 6.860197497248868 9.656398742511467 3 -1 1
431 3 2.6368144413738768 7.758567719274067 9.653566334082562 3 -1 1
1112 3 3.8366928517849455 4.2950492959941675 11.76895631556119 3 0 1
509 3 3.827378822094659 6.901889689942814 11.777886983283297 3 -1 1
485 3 5.058215635095335 6.022875969522547 9.649284618962596 2 -1 1
1150 3 6.27062482560204 5.1542782901471975 11.773928449211612 2 0 1
464 3 7.501066030977255 6.875910922894509 9.633256620813617 2 -1 1
1082 3 7.508461016947446 4.283375737414358 9.654447343638296 2 0 1
1142 3 9.979585688109536 5.151005983627928 9.658972023128449 2 0 1
540 3 8.726412206867389 5.97860529987135 11.77638593215457 2 -1 1
546 3 10.008758266465575 7.754543947057638 9.60927722314122 2 -1 1
523 3 11.209122880990808 6.905981431111008 11.734359271204527 2 -1 1
528 3 12.458273796208674 6.033966564311246 9.660246519353324 2 -1 1
1143 3 11.187158863206083 4.2789483252121485 11.766142458805987 2 0 1
1127 3 13.713080403962541 5.160533861603207 11.744128076517 2 0 1
529 3 13.691461993514418 7.784946765625701 11.786905087337724 2 -1 1
1124 3 13.707714603726169 5.17490767640114 16.089083369656333 2 0 1
1109 3 2.6621123319210103 2.5783536742244313 13.903821929670668 3 0 1
1104 3 1.4059753799886434 0.7963961415359218 16.08143055750507 3 0 1
1105 3 1.3928816451084307 3.4588111449003547 16.062484859952992 3 0 1
1103 2 0.1862343938005389 1.7008775166485854 13.906863535267744 3 0 1
1094 3 3.8333677414223755 1.6812864704440522 16.035295066996405 3 0 1
1144 3 5.063100865797357 0.8135415433787553 13.906842387382692 2 0 1
1145 3 5.046714774647512 3.4204110900408153 13.904184867512035 2 0 1
1146 3 6.2658193512369635 2.544409084082889 16.03214624191972 2 0 1
524 2 12.43993571979001 6.0539749469439945 13.917821112333288 2 -1 1
1133 3 7.496815194107944 1.6837325397082752 13.911335396175193 2 0 1
1134 3 8.72860758872578 0.8117659537969973 16.042750403777912 2 0 1
1139 3 9.919827777000929 2.571056379090203 13.91613731133518 2 0 1
1135 3 8.715869800397092 3.414456841019257 16.03531922922786 2 0 1
1117 3 11.166746476513849 1.6973885216111972 16.089537196226228 2 0 1
1123 3 13.66726566694677 2.5939244302120614 16.102148504287218 2 0 1
1121 2 12.392221173546151 0.7942363594397206 13.910976004585764 2 0 1
1122 3 12.408314779572478 3.4403970854915342 13.91616278935428 2 0 1
1128 3 0.17595823468839786 4.351854325035447 13.914052483525833 3 0 1
1152 3 1.3662664249618937 6.064858735129985 16.044627707574218 3 -1 1
1110 3 2.6042159543940513 5.176018895299584 13.904736671369358 3 0 1
510 3 0.18962953972250482 6.939327887944123 13.92184800409253 3 -1 1
554 3 6.2199006569388136 7.801750643722314 15.989239517573433 2 -1 1
508 3 3.793464164581856 6.921974158762828 16.03192111697122 3 -1 1
1111 3 3.8168695446889265 4.301324120464358 16.032358300645114 3 0 1
1147 3 6.242018891726672 5.145156591688153 16.00877481862272 2 0 1
552 3 5.029638474173065 6.030267594871401 13.905081483977039 2 -1 1
1140 3 9.901825848071622 5.1484758138195135 13.913080136336763 2 0 1
537 3 7.467311907176531 6.88917910293473 13.925369856908794 2 -1 1
1141 3 11.180890351322512 4.284708912965721 16.058068700164156 2 0 1
538 3 8.736771975092083 6.017730717836855 15.99035903520649 2 -1 1
1151 3 7.481002515187264 4.28275836070699 13.906671887987919 2 0 1
542 3 9.958414720562653 7.794350399864328 13.957078272804718 2 -1 1
522 3 11.171176498477642 6.945359018605347 16.07798057283441 2 -1 1
556 3 6.217578896483445 7.749954195185091 11.787910962006157 2 -1 1
515 3 2.587380792774116 7.790632847603533 13.91831607501925 3 -1 1
590 3 2.59587447180809 2.5674855997826858 18.15363763056078 3 0 0
585 3 1.3491432738477314 0.8349822119176575 20.252974357171098 3 0 0
586 3 1.349566053135262 3.4449061879092886 20.260315968155524 3 0 0
584 3 0.13471715848482207 1.6992262734940915 18.15682817542319 3 0 0
574 3 3.8034445208571084 1.6967410408315113 20.2584717772459 3 0 0
634 3 5.036924931824272 3.4229744645116935 18.15197707485591 2 0 0
633 3 5.0487200104935726 0.8170990565605896 18.149698128894602 2 0 0
635 3 6.263012668914088 2.559604752958643 20.264827847804767 2 0 0
625 3 11.194979759229193 4.30574728750548 24.469401625761478 2 0 0
620 3 7.501605321495079 1.6807093454300543 18.150395343901916 2 0 0
626 3 9.970563521808428 2.5511379778483434 18.147348049486535 2 0 0
621 3 8.739270723196103 0.8308828678259156 20.2566419436134 2 0 0
622 3 8.736831909594041 3.4243075832355774 20.253035173751975 2 0 0
600 3 11.21064871374287 1.696918566997327 20.253603404339415 2 0 0
604 3 13.663835341571508 5.16756544919216 24.471973823966636 2 0 0
606 3 12.441786084571728 3.436335313574111 18.155193205796827 2 0 0
605 3 12.43889339209217 0.8160266755093307 18.160238799891737 2 0 0
607 3 13.67395258587702 2.5727691025191124 20.257748680826055 2 0 0
13 3 2.565231621240335 7.803397474179856 18.15501108046069 3 -1 0
591 3 2.5809630600098834 5.185758324551943 18.15248321158194 3 0 0
7 3 1.3456259998671107 6.056730031076864 20.266530766195018 3 -1 0
610 3 0.13483266708104624 4.32139423836632 18.15739805638697 3 0 0
6 3 0.1177710453534461 6.938345348342993 18.163298750582452 3 -1 0
592 3 3.799722637380086 4.303176523888694 20.267677990781642 3 0 0
2 3 3.79373836864322 6.918358286975471 20.266137344175647 3 -1 0
57 3 4.975123254076876 6.026537565116729 18.149903221715125 2 -1 0
636 3 6.2469355579478965 5.147764524853315 20.285482996404944 2 0 0
638 3 7.493159047367339 4.237584634639499 18.147290853385652 2 0 0
59 3 6.2327065619118285 7.799324091196523 20.302824941595173 2 -1 0
38 2 7.488849678156917 6.909867248358245 18.14537231158995 2 -1 0
627 3 9.989410093946443 5.148596414774548 18.144528954570607 2 0 0
39 3 8.75913619467706 6.0135679624748315 20.297850769794703 2 -1 0
25 3 13.660598488323279 7.789342332578881 20.27077597141185 2 -1 0
628 3 11.211261251076152 4.299230324498963 20.250215651315088 2 0 0
18 3 11.206415793990447 6.908673965667517 20.256381566240314 2 -1 0
23 3 12.43890365663363 6.054734789230017 18.15322214630933 2 -1 0
608 3 13.66833521514818 5.183670907957767 20.259608345289124 2 0 0
582 3 1.3400820959844 3.440415345190073 24.47962248097066 3 0 0
587 3 2.566981517317522 2.5738058417787744 22.367640879983114 3 0 0
581 3 1.33349300836022 0.842596252246236 24.47699152421611 3 0 0
571 3 3.7894936597324715 1.7096823155666399 24.4771555703396 3 0 0
629 3 5.017377522043043 0.8383579060781069 22.364235419051436 2 0 0
630 3 5.024673044365104 3.4392039010953845 22.372341741456918 2 0 0
631 3 6.2504082228947 2.5808886019989243 24.48188332156293 2 0 0
21 3 13.682358372609116 7.76345229175315 24.470567466156087 2 -1 0
616 3 7.4892616304998105 1.7100836211670734 22.363337095054835 2 0 0
623 3 9.9670180310084 2.5736208279037296 22.354051093858903 2 0 0
618 3 8.722232977867312 3.443603846889356 24.478241781698223 2 0 0
617 3 8.72044290724101 0.9079766059609663 24.481518104026133 2 0 0
597 3 11.199935543696967 1.7208384905159797 24.479645101986115 2 0 0
580 3 0.11576914122390392 1.710021322212299 22.36384956409652 3 0 0
602 3 12.435178052857875 3.443012278925743 22.359359194815834 2 0 0
601 3 12.442577297303783 0.8478379211803327 22.357192026347132 2 0 0
603 3 13.659324176771488 2.5777082472351056 24.47793282439736 2 0 0
609 3 0.11586089077919706 4.310804130858418 22.366854483321365 3 0 0
3 3 0.12225012673226757 6.912351691614955 22.36901084370495 3 -1 0
4 3 1.3502412005213338 6.039300070534479 24.478329701766956 3 -1 0
588 3 2.571123068550086 5.177663451864084 22.374709810595313 3 0 0
589 3 3.798435546549539 4.309070362784168 24.486423798657547 3 0 0
1 3 3.807093163896306 6.911236496116644 24.486050514134337 3 -1 0
53 3 5.0265217399871895 6.038084203936632 22.37970557693008 2 -1 0
632 3 6.256096147573526 5.1709472838852015 24.489219139180854 2 0 0
55 3 6.259591401545945 7.771531885430819 24.485008411197466 2 -1 0
35 3 7.490723046904797 6.9009413791404 22.37408401572131 2 -1 0
637 3 7.489207455644642 4.297377874200401 22.369989953251768 2 0 0
36 3 8.716306224597327 6.031985143858583 24.476058162310956 2 -1 0
624 3 9.963847912299737 5.165793025210277 22.35886251830995 2 0 0
19 3 12.434325453265153 6.039664559291428 22.360941436105698 2 -1 0
17 3 11.197523677141897 6.89216434427613 24.46994267777249 2 -1 0
45 3 10.010321585584027 7.809338185593564 18.145908529425263 2 -1 0
9 3 2.5786720197578545 7.785232862281582 22.367874404909447 3 -1 0
41 3 9.96191337638658 7.768684578720089 22.358296929311265 2 -1 0
662 3 2.5696429910917704 2.574784379852909 26.59317610274034 3 0 0
658 3 1.346192730319534 3.4292552663544367 28.706845850750163 3 0 0
657 3 1.3407038630211272 0.8494523305192937 28.709094411293428 3 0 0
656 3 0.11011387113484161 1.7119671331242774 26.597214686496155 3 0 0
646 3 3.806761195768625 1.7128430248045405 28.704350659387543 3 0 0
706 3 5.030342608236358 3.4443040552418847 26.599241213117438 2 0 0
705 3 5.019934593852807 0.8528865975326918 26.59020847036532 2 0 0
707 3 6.270920238649723 2.580835170190439 28.71482740166444 2 0 0
692 3 7.487607602039573 1.723532378302514 26.604126221290063 2 0 0
93 3 13.562200209973401 7.708363831359695 32.96607768535743 2 -1 0
698 3 9.959662617647135 2.582404875986228 26.6058504319436 2 0 0
693 3 8.728113900502597 0.8531803158117667 28.73232170266404 2 0 0
694 3 8.733432402558446 3.4413581734902796 28.7231737217743 2 0 0
670 3 9.972060422450774 0.006418763233228806 26.635269555088712 2 0 0
672 3 11.189290945799632 1.713910066314994 28.727896086128972 2 0 0
678 3 12.426053314366413 3.4387882047630263 26.594254167003598 2 0 0
677 3 12.432862805590446 0.8549297384307947 26.61293557941267 2 0 0
679 3 13.654264041840012 2.569319843867242 28.714645168163887 2 0 0
676 3 13.637089564726947 5.137564634743285 32.961962158158975 2 0 0
663 3 2.5777944261563475 5.1652047957897524 26.597046732388485 3 0 0
79 3 1.3476288997491586 6.011834512780339 28.697838173328407 3 -1 0
682 3 0.11406141327987968 4.2959063951068845 26.58860634771586 3 0 0
78 3 0.12181385017767236 6.889565354710682 26.577161707429255 3 -1 0
85 3 2.5875690152398225 7.774110004820231 26.582620805777747 3 -1 0
664 3 3.8166708199073156 4.296115010890089 28.714841139176556 3 0 0
129 3 5.038139283284173 6.034941232292908 26.60785294045681 2 -1 0
74 3 3.8269165149814883 6.892013391756465 28.712946213202194 3 -1 0
708 3 6.280322356517609 5.165055409499709 28.720762166422485 2 0 0
710 3 7.491149667000328 4.306334444975458 26.602420933908213 2 0 0
131 3 6.284801833989784 7.764426569087171 28.72935128568549 2 -1 0
110 3 7.490780701190321 6.894480327057464 26.606412406390287 2 -1 0
699 3 9.957799688142975 5.163293319479416 26.594080269509373 2 0 0
111 3 8.737148555286186 6.024822744172501 28.72344385849583 2 -1 0
90 3 11.192589161800756 6.878129807329229 28.709428667540685 2 -1 0
117 3 9.956801695164401 7.702197475044455 26.599981335813357 2 -1 0
700 3 11.19333380104757 4.293822330166534 28.716737843080857 2 0 0
95 3 12.432329059581885 6.021281911615371 26.585495876896417 2 -1 0
680 3 13.654963837648559 5.144746568322679 28.700463328242343 2 0 0
97 3 13.640296057799363 7.725242678637541 28.661905957793614 2 -1 0
659 3 2.577948975028777 2.5656365140932715 30.823916664778363 3 0 0
654 3 1.337126404883995 3.4298943233380834 32.955498474521086 3 0 0
653 3 1.3290019077897488 0.8480868845472468 32.95452570472404 3 0 0
652 3 0.10209902566688454 1.7068287678303906 30.831833662472846 3 0 0
697 3 11.193314691928862 4.279898311153632 32.9724052491537 2 0 0
91 3 12.41637710765166 6.005275366745729 30.828599318371822 2 -1 0
643 3 3.8015579283978735 1.695131081897892 32.9404019038998 3 0 0
701 3 5.048909392430668 0.8453123060201022 30.82256163979913 2 0 0
702 3 5.0565649297052495 3.432929588099522 30.829463353521245 2 0 0
703 3 6.314245175101602 2.5544178780139437 32.92186631909899 2 0 0
688 3 7.51026810296747 1.7097142944232742 30.84136406392981 2 0 0
689 3 8.734002218692664 0.8366422105218048 32.974633648212524 2 0 0
695 3 9.965523356678442 2.5692559932187673 30.849597690572402 2 0 0
690 3 8.750662159217086 3.433618254389555 32.96947214386605 2 0 0
675 3 13.647652799117992 2.5617649182179534 32.95966536601923 2 0 0
674 3 12.418824644911636 3.422422837415642 30.840171762318803 2 0 0
673 3 12.412269699130727 0.8431764259404038 30.84461286847457 2 0 0
669 3 11.188167194894902 1.6967515491717673 32.971990224911224 2 0 0
81 3 2.6332669697229947 7.687024763755578 30.783977401067027 3 -1 0
660 3 2.591477406148781 5.14582553322555 30.831020703092115 3 0 0
76 3 1.33745157184525 5.953831212991714 32.96052454283499 3 -1 0
681 3 0.10410452166391654 4.279070629712947 30.827275686392888 3 0 0
75 3 0.08801636568701304 6.808709591148027 30.799348568786854 3 -1 0
73 3 3.8734942765018388 6.878095285064923 32.963865795805575 3 -1 0
661 3 3.8060603699926197 4.311825205895718 32.91983575811124 3 0 0
704 3 6.318097132016167 5.187448327964707 32.94467984900556 2 0 0
125 3 5.078950785678612 6.02780086531102 30.836585385609244 2 -1 0
127 3 6.323794374196796 7.770500763312751 32.964677470697744 2 -1 0
108 3 8.760776179601425 6.03670548543883 32.969225083812745 2 -1 0
107 3 7.533900785784712 6.899841662443564 30.84392764259117 2 -1 0
89 3 11.185147940429982 6.885274329297348 32.97238347692879 2 -1 0
696 3 9.977580064485364 5.155332500344579 30.84353528993539 2 0 0
709 3 7.524125631217186 4.3041822221987065 30.838511875191557 2 0 0
113 3 9.966906389051646 7.7641387227025564 30.844888686755393 2 -1 0
734 3 2.5306390674934836 2.5590871956808274 35.094499618861974 3 0 0
730 3 1.3711183906001465 3.4414653732147737 37.16648042011273 3 0 0
729 3 1.378408121273545 0.8203191933965001 37.163430502352604 3 0 0
728 3 0.10144736058022107 1.703712516113593 35.07849894291156 3 0 0
163 3 12.349144230629388 6.06654741175063 39.36792678392244 2 -1 0
718 3 3.811216578771611 1.6795940999853112 37.25248628376942 3 0 0
778 2 5.058067144598955 3.4429225766052167 35.10152227552372 2 0 0
777 3 5.05384575198504 0.7898343089716006 35.105780159717234 2 0 0
779 3 6.306499063996834 2.5568246319082606 37.27365848297977 2 0 0
764 3 7.534517010923229 1.68985565173256 35.10105901090462 2 0 0
770 3 9.958781352242651 2.5599421708584402 35.10184030333584 2 0 0
765 3 8.729485491966564 0.8338822063431679 37.231270791856716 2 0 0
766 3 8.730273644776966 3.4492230135523214 37.23315002415231 2 0 0
750 3 12.40450452195993 3.423256796251559 35.09454791510607 2 0 0
749 3 12.410837373710939 0.829744073499441 35.084313438207516 2 0 0
744 3 11.170824173922153 1.6967806456485657 37.22705493985599 2 0 0
751 3 13.601631901708352 2.567084850023743 37.16167866607293 2 0 0
754 3 0.09371995200553115 4.2982525884974905 35.08861197457544 3 0 0
735 3 2.562978414279155 5.185022375141844 35.09836111989225 3 0 0
151 3 1.3475659721923696 6.068998442575246 37.203009574495404 3 -1 0
150 3 0.08326367305295021 6.8276535825963105 35.11464903319278 3 -1 0
736 3 3.7960524692879924 4.337091482989 37.2738331648691 3 0 0
146 3 3.8333360792549693 6.93924082071493 37.22845729822885 3 -1 0
201 3 5.074090411440932 6.102587405239622 35.10015128442157 2 -1 0
780 3 6.294909269322365 5.213883415597832 37.25238958375916 2 0 0
203 3 6.292156233264479 7.808570101623308 37.22918373553085 2 -1 0
182 3 7.529098796797644 6.920153612518532 35.10137071947138 2 -1 0
782 3 7.568871637775213 4.329515805657767 35.09989771104869 2 0 0
771 3 9.959452859529783 5.164655757714488 35.10620322799077 2 0 0
183 3 8.720590263206535 6.059417845343281 37.24050931535037 2 -1 0
189 3 9.950888029101629 7.777980125335709 35.10454155908626 2 -1 0
169 3 13.614359679088267 7.753078638362031 37.258984470818 2 -1 0
162 3 11.153637118125653 6.911977177070459 37.2453414125987 2 -1 0
772 3 11.155965292560364 4.30614460968364 37.23328871075091 2 0 0
752 3 13.591327679204955 5.189586020285882 37.182450463323015 2 0 0
167 3 12.395407457062861 6.022430635741883 35.10471093534003 2 -1 0
726 3 1.379932013465286 3.4334298557449205 41.57002788036198 3 0 0
731 3 2.6509212370945474 2.5668216054663073 39.371574752236704 3 0 0
725 3 1.3902403853108543 0.8048456039770862 41.5766937058997 3 0 0
715 3 3.783085740996715 1.664705283831205 41.51634329336725 3 0 0
775 2 6.285989571760279 2.5683014013700847 41.50889973733392 2 0 0
773 3 5.045789409083835 0.7980099091922738 39.35544764517425 2 0 0
774 3 5.027816946861792 3.4610747459266813 39.332417278588316 2 0 0
760 3 7.532312187828423 1.6852053016809823 39.32686385269615 2 0 0
748 3 13.573238086985732 5.171177405027074 41.53729772518346 2 0 0
761 3 8.766385760451204 0.808178992084921 41.501021326786436 2 0 0
762 3 8.78657936880587 3.466527099817219 41.50932793911389 2 0 0
767 3 9.947440194940869 2.5746482925644596 39.367233183039616 2 0 0
741 3 11.17801131958385 1.6846530559326278 41.512311481259175 2 0 0
724 2 0.1040864052572239 1.687438637568487 39.36772709368845 3 0 0
747 3 13.598094249007737 2.556978607799113 41.5718724434246 2 0 0
745 3 12.33942012266716 0.8134422765951557 39.37245959810479 2 0 0
746 3 12.31610780528495 3.4351433829652533 39.36628947014717 2 0 0
732 3 2.632487768720039 5.2093209404012 39.36000367167345 3 0 0
147 3 0.07695021411022304 6.966087235775174 39.34316187838479 3 -1 0
783 3 1.3908123709649265 6.0075905216729595 41.48701015458565 3 -1 0
753 2 0.08434303843938011 4.359936628428015 39.3599239485319 3 0 0
733 3 3.809654242913443 4.328463738239265 41.50449645314743 3 0 0
145 3 3.853626893549653 6.9335175042391946 41.489338743273514 3 -1 0
776 3 6.2867023670196325 5.247269228543217 41.5039433654094 2 0 0
197 3 5.0534933512938585 6.078165498981107 39.362620470438294 2 -1 0
199 3 6.2839010626603935 7.8123367934400765 41.49035993221038 2 -1 0
180 3 8.729960124292553 6.0719815013404865 41.50656893758605 2 -1 0
768 3 9.932250873581008 5.193997848558442 39.368968967073776 2 0 0
781 3 7.510755530033909 4.345155311788028 39.35270937081291 2 0 0
179 3 7.49624185975071 6.938718655579298 39.36216723996357 2 -1 0
161 3 11.150330000359888 6.9304205809296695 41.51060288222501 2 -1 0
185 3 9.931823301353937 7.794136230547057 39.37873263610542 2 -1 0
769 3 11.162350726047856 4.3072732857460965 41.506854704597 2 0 0
157 3 2.6344642884776044 7.749673754623609 35.15289744030734 3 -1 0
153 3 2.626103754531451 7.79903775675743 39.31380759456371 3 -1 0
165 3 13.548367305718068 7.795112807573894 41.47689759409533 2 -1 0
807 3 2.583619054351304 2.5521980675548472 43.63723442017757 3 0 0
801 3 0.10987068296465731 1.6735109241278856 43.65318239879464 3 0 0
802 3 1.3393529053245163 0.8121287015093458 45.7601670261893 3 0 0
803 3 1.3338168914106034 3.4134469098154874 45.752226448828075 3 0 0
791 3 3.8129985766063337 1.6873382603361335 45.75272817575053 3 0 0
851 3 5.038169045171223 3.449835660582012 43.67425016832932 2 0 0
850 3 5.045886952953055 0.8039945484724822 43.65727476265034 2 0 0
852 3 6.290751986175741 2.5647003640312014 45.75278871098652 2 0 0
236 3 13.64693161111435 7.793651713488361 50.002445765606375 2 -1 0
837 3 7.546715394363004 1.6764981705986575 43.67270125579185 2 0 0
843 3 9.97432224937831 2.559669816364208 43.63498161479168 2 0 0
839 3 8.750734147196969 3.4443080783534006 45.7526384168419 2 0 0
838 3 8.744203305347627 0.8283720318581309 45.73802586040128 2 0 0
842 3 11.190657749992317 4.3122484050912115 50.00149215847531 2 0 0
817 3 11.196726041337001 1.6876070098302811 45.75080578417484 2 0 0
823 3 12.411863543927536 3.4137203239581595 43.64686737839595 2 0 0
822 3 12.420389751952403 0.8053601911370466 43.64420164101805 2 0 0
824 3 13.650403340377498 2.5421237502306155 45.76568839942446 2 0 0
827 3 0.09763482494229779 4.2381001758181025 43.64796208055208 3 0 0
808 3 2.594973087266992 5.143822479074579 43.61076288989221 3 0 0
222 3 1.3101858656891257 6.002851029428251 45.80940678938828 3 -1 0
228 3 2.6295005122168766 7.8326668601505665 43.623946143071784 3 -1 0
217 2 3.8257611417973236 6.928227771539333 45.75311137118211 3 -1 0
809 3 3.8163903500178344 4.244995945183538 45.742370320144786 3 0 0
272 3 5.0953854259665325 6.043377923352444 43.58642824336469 2 -1 0
853 3 6.325723203880156 5.167368692358995 45.75050650079478 2 0 0
274 3 6.33704857084884 7.825733908857739 45.75320392354149 2 -1 0
855 3 7.5433524229922435 4.333039397567047 43.6565496402836 2 0 0
253 3 7.520773802737157 6.939636167222933 43.63295849807441 2 -1 0
844 3 9.965585850766685 5.184824518829301 43.64121848593461 2 0 0
254 3 8.750580702477151 6.056490828382133 45.75828706920233 2 -1 0
221 2 0.0801843820988104 6.913080080244174 43.65939301737258 3 -1 0
233 3 11.178169516169518 6.9215198775714795 45.77033725873442 2 -1 0
845 3 11.198353952917218 4.301110810610357 45.76442124757984 2 0 0
238 3 12.348629641991048 6.027755010791639 43.64544108074274 2 -1 0
825 3 13.633006080919518 5.148449603444349 45.791049422332435 2 0 0
240 3 13.601185842739607 7.8140975740533065 45.82003401810207 2 -1 0
799 3 1.3047423171787327 3.470941818106683 49.967391666745755 3 0 0
804 3 2.5700724658805716 2.5688579200782384 47.84331284140328 3 0 0
798 2 1.3188812575375968 0.8248624862217729 50.00499952047745 3 0 0
797 3 0.06791554408661502 1.6983078791102446 47.83364321142292 3 0 0
788 3 3.8556875477104935 1.7127139712735397 49.99409027453878 3 0 0
846 3 5.054294216998987 0.8326523705731956 47.87450471155212 2 0 0
847 3 5.045844410046278 3.4296420606497904 47.854956430845355 2 0 0
848 3 6.268852087056971 2.5524402461919324 49.9648532561136 2 0 0
833 3 7.511576097240181 1.702805555330907 47.85223669888322 2 0 0
834 3 8.759842447217633 0.848462644673878 49.96893505647892 2 0 0
835 3 8.762760782553581 3.420797611773661 49.93760140263906 2 0 0
840 3 9.966774318689268 2.573762239889093 47.860767893649445 2 0 0
234 3 12.412788539988467 6.046231589909859 47.89365872141383 2 -1 0
814 3 11.193663609280208 1.7048371046644333 49.99348716489596 2 0 0
820 3 13.604362451810525 2.5754359314302913 49.99763421292783 2 0 0
818 3 12.415064298350112 0.8204243364783627 47.86748504853302 2 0 0
819 3 12.409051449432846 3.43612119437792 47.88005625912448 2 0 0
821 3 13.627781283915503 5.180800742601828 50.00649736282434 2 0 0
826 3 0.07997108053504391 4.291507998028498 47.8760435948981 3 0 0
856 3 1.2898800573632392 6.060354390231973 49.945827746371194 3 -1 0
218 3 0.08480169958276652 6.917113425895172 47.88431202361825 3 -1 0
805 3 2.550270345436626 5.151461772062599 47.87334440690977 3 0 0
224 3 2.5399876554768426 7.816542925607698 47.91017169487002 3 -1 0
270 3 6.27274205193171 7.781146373514414 49.98859136183971 2 -1 0
806 3 3.8187975225050197 4.286401621948366 49.93670134542456 3 0 0
216 3 3.799378370718694 6.922768027909389 49.964999510454184 3 -1 0
268 3 5.076145605290079 6.033884629794005 47.897148685941545 2 -1 0
849 3 6.246258583392391 5.189764678827995 49.934742837881444 2 0 0
256 3 9.962520451553463 7.789186266181366 47.886327958691126 2 -1 0
250 3 7.522861225125953 6.923317948643461 47.872639834653015 2 -1 0
841 3 9.970279659402594 5.184945024087215 47.87504684781003 2 0 0
251 3 8.75173291590353 6.061561741568108 49.97282373873333 2 -1 0
854 3 7.518615586709161 4.309508927959848 47.857973235753526 2 0 0
232 3 11.196933233418155 6.927722927980104 50.00863356582978 2 -1 0
260 3 9.94173283773658 7.805940474268631 43.64053894655094 2 -1 0
880 3 2.6142085711738208 2.5115237938386588 52.14917453919893 3 0 0
874 3 0.045200728975580085 1.6938519511537837 52.18925575351856 3 0 0
875 3 1.315878747819605 0.7762211279650261 54.36498757425676 3 0 0
876 2 1.3673172984728597 3.3933884799421756 54.379128721917155 3 0 0
864 3 3.8427669026626607 1.6867405245531766 54.37833177797911 3 0 0