LAMMPS (22 Dec 2022)
OMP_NUM_THREADS environment is not set. Defaulting to 1 thread. (../comm.cpp:98)
  using 1 OpenMP thread(s) per MPI task
# general variables
variable	temperature equal 500       # Temperature variable
variable	nsteps_run equal 1000000

# general settings
units		metal
dimension 3
boundary	p p p

#processors      3 3 3
atom_style	atomic

# ------------------- ATOM DEFINE ------------------------------

variable        latparam equal 3.01685999999993             #variable

variable        xl equal 0
variable        xh equal 3
variable        yl equal 0
variable        yh equal 3
variable        zl equal 0
variable        zh equal 16

lattice         bcc ${latparam} orient x 1 1 -2 orient y 1 1 1 orient z 1 -1 0
lattice         bcc 3.01685999999993 orient x 1 1 -2 orient y 1 1 1 orient z 1 -1 0
Lattice spacing in x,y,z = 4.9265118 5.2253548 4.2664843
region          mybox block ${xl} ${xh} ${yl} ${yh} ${zl} ${zh}
region          mybox block 0 ${xh} ${yl} ${yh} ${zl} ${zh}
region          mybox block 0 3 ${yl} ${yh} ${zl} ${zh}
region          mybox block 0 3 0 ${yh} ${zl} ${zh}
region          mybox block 0 3 0 3 ${zl} ${zh}
region          mybox block 0 3 0 3 0 ${zh}
region          mybox block 0 3 0 3 0 16

create_box      5 mybox
Created orthogonal box = (0 0 0) to (14.779535 15.676064 68.263749)
  1 by 2 by 8 MPI processor grid

mass 1 180.948
mass 2 92.9064
mass 3 50.9415
mass 4 95.94
mass 5 183.84

create_atoms 3 box
Created 1152 atoms
  using lattice units in orthogonal box = (0 0 0) to (14.779535 15.676064 68.263749)
  create_atoms CPU = 0.015 seconds
set type 3 type/ratio 2 0.05 384
Setting atom values ...
  57 settings made for type/ratio

# ----------------------- FORCE FIELDS -----------------------
pair_style mlip mlip.ini
pair_coeff * *

# ------------------------- SETTINGS --------------------------
timestep 0.001
delete_atoms overlap 2 all all
System init for delete_atoms ...
Neighbor list info ...
  update: every = 1 steps, delay = 0 steps, check = yes
  max neighbors/atom: 2000, page size: 100000
  master list distance cutoff = 6.8
  ghost atom cutoff = 6.8
  binsize = 3.4, bins = 5 5 21
  2 neighbor lists, perpetual/occasional/extra = 1 1 0
  (1) command delete_atoms, occasional, copy from (2)
      attributes: full, newton on
      pair build: copy
      stencil: none
      bin: none
  (2) pair mlip, perpetual
      attributes: full, newton on
      pair build: full/bin/atomonly
      stencil: full/bin/3d
      bin: standard
Deleted 0 atoms, new total = 1152
velocity all create ${temperature} 4928459 rot yes dist gaussian
velocity all create 500 4928459 rot yes dist gaussian

fix 1 all atom/swap 1 1 114514 ${temperature} types 3 2
fix 1 all atom/swap 1 1 114514 500 types 3 2
fix temp all npt temp ${temperature} ${temperature} 0.1 iso 0 0 0.1
fix temp all npt temp 500 ${temperature} 0.1 iso 0 0 0.1
fix temp all npt temp 500 500 0.1 iso 0 0 0.1
thermo 1000
thermo_style custom step pe ke etotal time cpu tpcpu

dump 1 all custom 20000 dump.* id type x y z
run ${nsteps_run}
run 1000000
Neighbor list info ...
  update: every = 1 steps, delay = 0 steps, check = yes
  max neighbors/atom: 2000, page size: 100000
  master list distance cutoff = 6.8
  ghost atom cutoff = 6.8
  binsize = 3.4, bins = 5 5 21
  1 neighbor lists, perpetual/occasional/extra = 1 0 0
  (1) pair mlip, perpetual
      attributes: full, newton on
      pair build: full/bin/atomonly
      stencil: full/bin/3d
      bin: standard
Per MPI rank memory allocation (min/avg/max) = 4.351 | 4.354 | 4.355 Mbytes
   Step         PotEng         KinEng         TotEng          Time           CPU           T/CPU     
         0  -10499.523      74.389213     -10425.134      0              0              0            
      1000  -10435.247      72.368956     -10362.878      1              116.84701      0.0085581996 
      2000  -10428.82       74.940972     -10353.879      2              234.46817      0.0085018713 
      3000  -10433.938      73.199286     -10360.739      3              352.37261      0.0084814448 
      4000  -10432.348      75.017211     -10357.331      4              469.99437      0.0085018279 
      5000  -10434.411      74.569169     -10359.842      5              588.73317      0.0084218474 
      6000  -10430.71       76.102345     -10354.608      6              705.71617      0.0085482506 
      7000  -10434.184      73.013946     -10361.17       7              822.63017      0.0085532951 
      8000  -10431.79       73.9457       -10357.844      8              938.90698      0.0086001673 
      9000  -10435.154      73.03189      -10362.122      9              1056.9789      0.0084694124 
     10000  -10434.574      74.429101     -10360.145      10             1178.8574      0.0082048953 
     11000  -10426.045      74.268739     -10351.776      11             1293.7023      0.0087073939 
     12000  -10433.924      74.366744     -10359.557      12             1410.9279      0.0085305585 
     13000  -10431.184      75.83263      -10355.351      13             1529.6089      0.0084259513 
     14000  -10433.066      71.706826     -10361.359      14             1646.7045      0.0085400283 
     15000  -10429.559      73.554218     -10356.005      15             1765.8916      0.0083901745 
     16000  -10434.468      70.713866     -10363.754      16             1887.6165      0.0082152458 
     17000  -10432.135      74.942781     -10357.192      17             2008.7509      0.0082552877 
     18000  -10433.601      74.384994     -10359.216      18             2129.3395      0.008292658  
     19000  -10428.982      76.422873     -10352.559      19             2249.7556      0.0083045409 
     20000  -10431.601      76.974773     -10354.626      20             2372.4499      0.0081503393 
     21000  -10432.567      74.836704     -10357.73       21             2493.5721      0.0082561223 
     22000  -10433.126      74.566296     -10358.56       22             2614.2814      0.0082843677 
     23000  -10430          73.137322     -10356.862      23             2731.8398      0.0085064117 
     24000  -10430.764      75.081505     -10355.683      24             2850.6713      0.0084152718 
     25000  -10430.957      71.025207     -10359.932      25             2969.2382      0.0084340616 
     26000  -10432.848      77.614633     -10355.233      26             3087.9476      0.0084239289 
     27000  -10434.796      74.741774     -10360.054      27             3205.1201      0.0085344307 
     28000  -10432.87       74.486497     -10358.383      28             3322.5913      0.0085127242 
     29000  -10435.905      74.932766     -10360.973      29             3438.4402      0.0086319285 
     30000  -10431.845      75.797684     -10356.048      30             3551.836       0.0088186706 
     31000  -10434.796      75.021721     -10359.774      31             3665.2609      0.0088164049 
     32000  -10435.857      72.15677      -10363.7        32             3779.1139      0.0087832576 
     33000  -10431.654      74.601676     -10357.052      33             3892.433       0.0088246393 
     34000  -10436.333      71.8003       -10364.533      34             4006.4679      0.0087692472 
     35000  -10433.413      76.470788     -10356.942      35             4120.189       0.0087934381 
     36000  -10431.238      71.500067     -10359.738      36             4233.6834      0.0088110067 
     37000  -10435.03       71.757394     -10363.273      37             4347.739       0.0087676592 
     38000  -10433.638      75.080807     -10358.557      38             4460.5758      0.0088623542 
     39000  -10433.355      77.995717     -10355.359      39             4573.1181      0.0088855482 
     40000  -10434.21       75.248368     -10358.962      40             4686.5109      0.0088188997 
     41000  -10432.599      73.720049     -10358.879      41             4798.7265      0.0089114173 
     42000  -10433.004      76.71496      -10356.289      42             4910.576       0.0089405856 
     43000  -10431.083      70.654719     -10360.428      43             5023.6146      0.0088465345 
     44000  -10432.396      76.103739     -10356.293      44             5135.1907      0.0089624937 
     45000  -10436.017      72.456964     -10363.56       45             5246.7922      0.0089604534 
     46000  -10430.256      72.431455     -10357.824      46             5358.2656      0.0089707536 
     47000  -10435.241      75.543075     -10359.698      47             5469.5484      0.0089861109 
     48000  -10433.41       74.238232     -10359.172      48             5581.588       0.008925413  
     49000  -10433.472      72.994674     -10360.478      49             5693.5742      0.0089296713 
     50000  -10432.141      73.244481     -10358.897      50             5805.1188      0.0089650257 
     51000  -10435.851      77.323898     -10358.527      51             5917.9696      0.008861261  
     52000  -10434.637      77.070799     -10357.566      52             6031.0256      0.0088451697 
     53000  -10434.437      72.866909     -10361.57       53             6145.3915      0.0087438651 
     54000  -10430.121      75.270434     -10354.85       54             6257.6791      0.0089057037 
     55000  -10431.918      77.119008     -10354.799      55             6369.4417      0.008947537  
     56000  -10434.462      73.791609     -10360.67       56             6481.1437      0.0089523962 
     57000  -10432.931      75.608406     -10357.323      57             6592.354       0.008991969  
     58000  -10435.56       74.340283     -10361.22       58             6704.7416      0.0088977765 
     59000  -10434.68       74.187882     -10360.492      59             6816.2897      0.0089647427 
     60000  -10432.552      77.016759     -10355.535      60             6927.509       0.0089912508 
     61000  -10434.735      75.625664     -10359.109      61             7038.8084      0.008984772  
     62000  -10431.748      73.829746     -10357.919      62             7150.0382      0.0089903979 
     63000  -10432.618      73.762143     -10358.856      63             7261.5522      0.0089674824 
     64000  -10432.778      72.618498     -10360.159      64             7373.381       0.008942236  
     65000  -10431.015      74.730879     -10356.284      65             7484.1345      0.0090290661 
     66000  -10433.988      75.542189     -10358.446      66             7595.3272      0.0089933927 
     67000  -10430.787      74.228014     -10356.559      67             7706.3024      0.009011022  
     68000  -10432.851      76.025444     -10356.825      68             7818.0414      0.0089494278 
     69000  -10433.799      72.360603     -10361.438      69             7930.4738      0.008894231  
     70000  -10433.902      75.857456     -10358.045      70             8043.5647      0.0088424467 
     71000  -10433.671      76.580024     -10357.091      71             8155.6536      0.0089214888 
     72000  -10432.856      71.281616     -10361.575      72             8268.8908      0.0088310236 
     73000  -10430.607      73.012045     -10357.595      73             8380.7019      0.0089436535 
     74000  -10432.667      70.560689     -10362.107      74             8493.7424      0.0088463853 
     75000  -10431.799      75.043429     -10356.756      75             8607.5793      0.0087845034 
     76000  -10435.116      76.761109     -10358.355      76             8724.3354      0.0085648601 
     77000  -10434.267      77.189332     -10357.078      77             8839.7414      0.0086650621 
     78000  -10432.003      75.695472     -10356.308      78             8956.552       0.0085608633 
     79000  -10432.399      73.509051     -10358.89       79             9072.8471      0.0085988167 
     80000  -10437.016      74.746283     -10362.27       80             9189.8071      0.0085499305 
     81000  -10433.875      76.786618     -10357.089      81             9304.2013      0.0087417065 
     82000  -10433.436      72.736656     -10360.7        82             9416.8194      0.0088795617 
     83000  -10430.38       74.859553     -10355.521      83             9529.0832      0.0089075967 
     84000  -10434.882      70.69886      -10364.183      84             9640.1601      0.0090027661 
     85000  -10430.807      74.129346     -10356.678      85             9752.0651      0.0089361557 
     86000  -10431.059      72.143033     -10358.916      86             9863.4433      0.0089784148 
     87000  -10428.494      75.253874     -10353.241      87             9974.9307      0.0089696247 
     88000  -10431.34       71.824831     -10359.515      88             10086.177      0.0089890552 
     89000  -10429.443      76.477481     -10352.966      89             10197.061      0.0090184105 
     90000  -10434.006      74.956967     -10359.049      90             10308.413      0.0089805241 
     91000  -10433.705      73.00749      -10360.698      91             10419.966      0.0089644184 
     92000  -10429.691      74.264405     -10355.427      92             10532.458      0.0088894658 
     93000  -10436.497      73.689345     -10362.808      93             10643.681      0.0089909567 
     94000  -10435.985      78.167709     -10357.817      94             10756.83       0.0088379407 
     95000  -10436.688      72.609811     -10364.078      95             10869.033      0.0089124239 
     96000  -10432.14       75.490404     -10356.65       96             10982.935      0.0087794199 
     97000  -10433.78       73.052222     -10360.728      97             11096.041      0.0088412859 
     98000  -10432.379      73.906985     -10358.472      98             11208.831      0.0088660415 
     99000  -10435.663      76.00041      -10359.663      99             11321.723      0.0088580178 
    100000  -10431.233      75.899785     -10355.333      100            11434.534      0.0088643762 
    101000  -10436.632      71.134549     -10365.497      101            11548.156      0.0088011529 
    102000  -10428.754      72.192605     -10356.562      102            11661.145      0.0088503863 
    103000  -10431.122      75.026409     -10356.095      103            11778.97       0.0084872007 
    104000  -10434.894      76.382191     -10358.512      104            11899.294      0.0083108649 
    105000  -10430.012      74.495072     -10355.517      105            12016.623      0.0085230348 
    106000  -10429.44       75.612723     -10353.828      106            12130.662      0.0087689607 
    107000  -10433.532      73.493384     -10360.039      107            12242.867      0.0089122009 
    108000  -10432.536      78.024066     -10354.512      108            12354.688      0.0089428919 
    109000  -10434.639      72.29059      -10362.349      109            12466.686      0.0089286931 
    110000  -10431.757      74.345839     -10357.411      110            12579.061      0.0088988395 
    111000  -10433.323      74.765629     -10358.557      111            12691.152      0.0089212813 
    112000  -10434.047      74.714233     -10359.333      112            12803.899      0.0088694356 
    113000  -10434.634      74.259108     -10360.375      113            12916.338      0.008893742  
    114000  -10432.605      74.683935     -10357.921      114            13028.048      0.0089517131 
    115000  -10432.133      72.651719     -10359.481      115            13139.544      0.0089689572 
    116000  -10431.475      73.996794     -10357.478      116            13250.265      0.0090317176 
    117000  -10431.863      73.441729     -10358.421      117            13361.167      0.0090169675 
    118000  -10432.048      76.520274     -10355.528      118            13472.615      0.0089727537 
    119000  -10434.295      73.571846     -10360.724      119            13583.368      0.009029154  
    120000  -10429.987      74.933635     -10355.053      120            13694.227      0.0090204116 
    121000  -10430.688      74.30797      -10356.38       121            13805.312      0.0090021302 
    122000  -10429.051      73.59633      -10355.454      122            13916.358      0.0090052832 
    123000  -10433.009      71.618337     -10361.391      123            14028.85       0.0088895452 
    124000  -10429.465      75.938036     -10353.527      124            14144.197      0.0086694365 
    125000  -10432.4        75.261053     -10357.139      125            14262.101      0.008481526  
    126000  -10433.645      74.495516     -10359.149      126            14380.729      0.0084296965 
    127000  -10434.983      79.240218     -10355.742      127            14498.518      0.0084897748 
    128000  -10430.965      72.290498     -10358.675      128            14611.421      0.0088571189 
    129000  -10431.73       73.140732     -10358.59       129            14722.179      0.0090287214 
    130000  -10435.485      76.394707     -10359.091      130            14833.272      0.0090014552 
    131000  -10430.827      76.083338     -10354.744      131            14944.27       0.0090091459 
    132000  -10433.997      73.258788     -10360.738      132            15055.164      0.0090176358 
    133000  -10431.051      74.942055     -10356.109      133            15166.32       0.0089963594 
    134000  -10434.229      74.349592     -10359.88       134            15277.423      0.009000707  
    135000  -10430.588      76.315911     -10354.272      135            15388.174      0.0090292635 
    136000  -10434.298      75.27073      -10359.027      136            15498.978      0.0090249358 
    137000  -10431.541      74.67767      -10356.864      137            15609.822      0.0090216431 
    138000  -10435.873      72.146829     -10363.726      138            15721.339      0.008967231  
    139000  -10432.309      73.136312     -10359.173      139            15832.702      0.0089796543 
    140000  -10432.065      74.957741     -10357.108      140            15944.287      0.0089618332 
    141000  -10430.268      73.1689       -10357.099      141            16054.53       0.0090708635 
    142000  -10435.428      71.702961     -10363.725      142            16164.968      0.009054867  
    143000  -10430.022      74.165986     -10355.856      143            16276.211      0.0089893165 
    144000  -10431.449      71.4255       -10360.024      144            16387.598      0.0089776667 
    145000  -10432.303      74.505346     -10357.797      145            16498.805      0.0089922916 
    146000  -10434.915      69.046347     -10365.869      146            16610.551      0.0089488701 
    147000  -10432.47       74.855398     -10357.615      147            16724.96       0.0087405482 
    148000  -10434.858      71.581619     -10363.277      148            16842.995      0.0084720277 
    149000  -10431.693      76.747553     -10354.945      149            16960.436      0.0085149643 
    150000  -10430.81       69.650866     -10361.159      150            17074.243      0.0087867499 
    151000  -10434.039      75.558689     -10358.48       151            17186.316      0.0089227937 
    152000  -10433.634      71.704162     -10361.93       152            17297.959      0.0089571137 
    153000  -10432.664      75.135567     -10357.528      153            17409.068      0.0090001651 
    154000  -10431.967      71.55382      -10360.414      154            17520.12       0.0090047739 
    155000  -10431.065      74.709063     -10356.356      155            17632.055      0.0089337569 
    156000  -10430.475      73.228095     -10357.247      156            17743.171      0.0089996302 
    157000  -10433.148      78.175953     -10354.972      157            17855.254      0.0089219809 
    158000  -10434.482      71.466127     -10363.016      158            17966.737      0.0089699365 
    159000  -10432.848      75.035928     -10357.812      159            18078.144      0.0089761089 
    160000  -10435.385      74.289384     -10361.096      160            18191.021      0.0088591808 
    161000  -10433.013      77.00175      -10356.012      161            18303.825      0.0088649495 
    162000  -10431.99       72.704281     -10359.285      162            18416.756      0.0088549728 
    163000  -10431.372      75.054364     -10356.318      163            18529.205      0.0088928859 
    164000  -10429.669      74.853622     -10354.815      164            18641.608      0.0088966102 
    165000  -10433.412      75.665735     -10357.746      165            18755.062      0.0088140971 
    166000  -10433.276      73.160126     -10360.116      166            18868.393      0.008823749  
    167000  -10434.306      74.536994     -10359.769      167            18981.122      0.0088708118 
    168000  -10431.813      72.647609     -10359.166      168            19095.803      0.0087198461 
    169000  -10433.769      74.928898     -10358.84       169            19213.166      0.0085206128 
    170000  -10430.193      73.227006     -10356.966      170            19331.548      0.0084471678 
    171000  -10431.293      75.667496     -10355.625      171            19448.247      0.0085691077 
    172000  -10434.394      75.225272     -10359.169      172            19562.02       0.0087893942 
    173000  -10431.546      76.075904     -10355.47       173            19674.361      0.0089014647 
    174000  -10438.433      73.236471     -10365.197      174            19786.962      0.0088809226 
    175000  -10430.539      72.778421     -10357.761      175            19898.949      0.0089296263 
    176000  -10435.02       75.90786      -10359.113      176            20010.852      0.0089363147 
    177000  -10430.757      75.646546     -10355.11       177            20122.419      0.0089632035 
    178000  -10435.396      74.274604     -10361.121      178            20233.67       0.0089886998 
    179000  -10432.557      74.32174      -10358.235      179            20344.641      0.009011377  
    180000  -10432.681      73.889175     -10358.791      180            20456.063      0.0089748398 
    181000  -10431.852      73.792225     -10358.06       181            20567.861      0.0089447644 
    182000  -10433.011      72.845336     -10360.165      182            20679.58       0.008951021  
    183000  -10432.355      76.36059      -10355.995      183            20790.15       0.0090440114 
    184000  -10433.443      73.209024     -10360.234      184            20900.654      0.0090494449 
    185000  -10427.898      76.243902     -10351.654      185            21011.398      0.0090298058 
    186000  -10432.595      73.339941     -10359.255      186            21121.73       0.0090636063 
    187000  -10430.525      76.677965     -10353.847      187            21233.475      0.0089489136 
    188000  -10432.045      74.036672     -10358.008      188            21344.294      0.0090237434 
    189000  -10433.26       73.390994     -10359.869      189            21455.098      0.0090249574 
    190000  -10432.3        76.076258     -10356.224      190            21566.414      0.0089834229 
    191000  -10432.749      72.907742     -10359.842      191            21679.651      0.0088310632 
    192000  -10432.492      71.978051     -10360.513      192            21796.207      0.0085795186 
    193000  -10429.973      74.666958     -10355.306      193            21913.575      0.0085202079 
    194000  -10429.745      74.571969     -10355.173      194            22029.261      0.0086440769 
    195000  -10433.354      72.063117     -10361.29       195            22143.198      0.0087767876 
    196000  -10431.294      74.831887     -10356.462      196            22256.221      0.0088477829 
    197000  -10434.423      72.644846     -10361.778      197            22368.335      0.0089194626 
    198000  -10434.796      76.001363     -10358.795      198            22480.834      0.0088890024 
    199000  -10435.972      74.157582     -10361.814      199            22593.261      0.0088946493 
    200000  -10432.198      76.437134     -10355.761      200            22704.841      0.0089621993 
    201000  -10430.948      73.266638     -10357.681      201            22816.772      0.0089340876 
    202000  -10433.82       76.842479     -10356.978      202            22928.218      0.0089729533 
    203000  -10430.432      73.742527     -10356.689      203            23039.778      0.0089637869 
    204000  -10435.237      75.316124     -10359.921      204            23151.262      0.0089698893 
    205000  -10432.606      71.064906     -10361.541      205            23262.462      0.0089927917 
    206000  -10433.054      74.171684     -10358.883      206            23374.217      0.008948126  
    207000  -10434.417      73.46865      -10360.949      207            23485.389      0.0089951272 
    208000  -10431.499      74.718845     -10356.781      208            23597.586      0.0089128912 
    209000  -10434.974      73.397013     -10361.577      209            23709.889      0.0089044123 
    210000  -10432.963      78.587332     -10354.376      210            23821.099      0.008992025  
    211000  -10432.324      73.737926     -10358.586      211            23932.55       0.0089725788 
    212000  -10437.356      76.952766     -10360.404      212            24044.853      0.0089044746 
    213000  -10427.096      74.505874     -10352.59       213            24157.684      0.0088628053 
    214000  -10434.078      75.314878     -10358.763      214            24269.291      0.0089600389 
    215000  -10430.177      75.557206     -10354.62       215            24380.278      0.0090100408 
    216000  -10432.191      73.246681     -10358.944      216            24490.656      0.0090597848 
    217000  -10430.735      73.574125     -10357.161      217            24601.415      0.009028602  
    218000  -10433.113      76.396528     -10356.716      218            24712.242      0.0090230374 
    219000  -10431.802      75.949801     -10355.853      219            24824.011      0.008947069  
    220000  -10432.235      69.592464     -10362.642      220            24935.446      0.0089737931 
    221000  -10433.55       77.574841     -10355.975      221            25048.527      0.0088432479 
    222000  -10435.572      76.375287     -10359.197      222            25162.741      0.0087555252 
    223000  -10431.46       74.724515     -10356.736      223            25277.568      0.0087086886 
    224000  -10433.821      73.821651     -10359.999      224            25395.742      0.0084621547 
    225000  -10428.873      72.289454     -10356.584      225            25515.188      0.0083719287 
    226000  -10431.937      72.466048     -10359.471      226            25633.182      0.0084750126 
    227000  -10430.258      77.756234     -10352.502      227            25748.425      0.0086773666 
    228000  -10432.203      70.95422      -10361.249      228            25862.194      0.0087897561 
    229000  -10433.007      75.887843     -10357.119      229            25974.798      0.0088806194 
    230000  -10437.166      73.405225     -10363.761      230            26087.2        0.0088966951 
    231000  -10431.456      73.770582     -10357.685      231            26198.979      0.0089461916 
    232000  -10430.479      73.227283     -10357.252      232            26310.945      0.0089312434 
    233000  -10436.292      75.719275     -10360.573      233            26423.03       0.0089218047 
    234000  -10437.383      73.127419     -10364.255      234            26534.88       0.0089405521 
    235000  -10430.713      72.445449     -10358.268      235            26646.515      0.0089577722 
    236000  -10432.612      70.335982     -10362.276      236            26758.614      0.0089207253 
    237000  -10432.102      76.128746     -10355.973      237            26871.618      0.0088492115 
    238000  -10432.715      71.723525     -10360.992      238            26984.262      0.008877549  
    239000  -10431.903      74.459509     -10357.444      239            27096.766      0.0088885361 
    240000  -10430.185      73.055563     -10357.13       240            27209.625      0.00886061   
    241000  -10435.801      73.425888     -10362.375      241            27322.066      0.0088935542 
    242000  -10434.012      76.768736     -10357.243      242            27433.415      0.0089808354 
    243000  -10432.144      71.805735     -10360.338      243            27544.594      0.0089944343 
    244000  -10430.738      76.167894     -10354.57       244            27655.759      0.0089956415 
    245000  -10433.715      73.239008     -10360.476      245            27767.322      0.0089635424 
    246000  -10432.71       76.481685     -10356.229      246            27878.479      0.0089963269 
    247000  -10432.064      73.01922      -10359.045      247            27989.515      0.009006116  
    248000  -10429.239      73.828124     -10355.41       248            28100.632      0.00899949   
    249000  -10431.964      73.112084     -10358.852      249            28213.994      0.0088212786 
    250000  -10429.426      75.16422      -10354.262      250            28328.51       0.0087324545 
    251000  -10434.508      76.950938     -10357.557      251            28442.234      0.0087931527 
    252000  -10433.165      73.937348     -10359.227      252            28556.429      0.008756987  
    253000  -10427.952      72.840672     -10355.111      253            28668.864      0.0088940196 
    254000  -10434.914      73.317016     -10361.597      254            28782.117      0.0088297718 
    255000  -10430.461      73.562455     -10356.898      255            28893.495      0.0089784224 
    256000  -10436.1        76.982023     -10359.118      256            29005.359      0.0089394538 
    257000  -10432.89       74.349057     -10358.541      257            29116.332      0.0090112134 
    258000  -10431.594      74.174651     -10357.419      258            29227.347      0.0090077965 
    259000  -10430.601      72.796637     -10357.805      259            29338.447      0.0090008488 
    260000  -10433.355      74.921955     -10358.433      260            29449.6        0.0089966344 
    261000  -10430.077      71.524482     -10358.552      261            29560.915      0.0089835291 
    262000  -10433.61       74.65237      -10358.958      262            29672.681      0.008947271  
    263000  -10431.221      76.021615     -10355.199      263            29784.452      0.0089468787 
    264000  -10434.232      72.70509      -10361.527      264            29895.704      0.0089885574 
    265000  -10430.389      74.754784     -10355.634      265            30008.494      0.0088660879 
    266000  -10432.084      73.519758     -10358.564      266            30120.078      0.0089618534 
    267000  -10432.384      75.900966     -10356.483      267            30233.719      0.0087996468 
    268000  -10431.838      74.026122     -10357.812      268            30347.222      0.0088103408 
    269000  -10431.138      76.869462     -10354.269      269            30459.207      0.0089297641 
    270000  -10433.185      74.291392     -10358.894      270            30571.098      0.008937269  
    271000  -10430.602      75.611043     -10354.991      271            30682.094      0.0090093229 
    272000  -10432.808      75.395143     -10357.413      272            30793.441      0.0089809283 
    273000  -10432.696      72.182737     -10360.513      273            30904.556      0.0089996284 
    274000  -10432.668      77.320177     -10355.348      274            31015.314      0.0090287626 
    275000  -10433.186      73.80318      -10359.383      275            31125.548      0.0090715427 
    276000  -10429.898      71.935197     -10357.963      276            31236.606      0.0090043205 
    277000  -10435.42       71.498012     -10363.922      277            31348.448      0.0089411673 
    278000  -10434.099      75.356843     -10358.742      278            31460.406      0.0089319557 
    279000  -10431.293      73.089332     -10358.204      279            31571.773      0.008979311  
    280000  -10435.524      74.661239     -10360.862      280            31682.602      0.0090229138 
    281000  -10431.523      75.354931     -10356.168      281            31793.334      0.0090308453 
    282000  -10433.039      79.660312     -10353.378      282            31903.997      0.0090364477 
    283000  -10434.018      73.807948     -10360.21       283            32015.621      0.0089585884 
    284000  -10430.498      76.382573     -10354.116      284            32126.461      0.0090220281 
    285000  -10433.727      73.099186     -10360.627      285            32238.46       0.0089286764 
    286000  -10430.369      73.681508     -10356.687      286            32350.841      0.008898269  
    287000  -10435.352      72.329083     -10363.023      287            32463.532      0.0088738128 
    288000  -10432.379      74.155188     -10358.224      288            32577.922      0.0087420644 
    289000  -10432.119      73.42734      -10358.692      289            32689.643      0.0089508994 
    290000  -10429.976      77.110158     -10352.866      290            32801.949      0.0089042098 
    291000  -10433.252      74.860499     -10358.392      291            32913.189      0.0089896039 
    292000  -10431.594      76.842809     -10354.751      292            33024.519      0.0089822709 
    293000  -10430.833      71.662415     -10359.171      293            33135.615      0.0090012502 
    294000  -10431.995      72.020016     -10359.975      294            33247.74       0.0089186288 
    295000  -10429.277      73.833711     -10355.443      295            33358.315      0.0090436052 
    296000  -10435.189      74.855156     -10360.334      296            33469.938      0.0089587373 
    297000  -10432.408      73.317163     -10359.091      297            33582.32       0.0088981831 
    298000  -10434.205      76.954462     -10357.251      298            33694.236      0.0089353159 
    299000  -10436.131      73.340119     -10362.791      299            33805.59       0.0089803593 
    300000  -10431.979      73.846044     -10358.133      300            33916.19       0.0090416115 
    301000  -10433.99       76.872253     -10357.118      301            34027.772      0.0089619586 
    302000  -10430.176      75.693611     -10354.482      302            34138.424      0.009037398  
    303000  -10433.183      72.497795     -10360.685      303            34250.388      0.0089314104 
    304000  -10431.968      74.993846     -10356.974      304            34363.366      0.008851272  
    305000  -10433.42       74.053024     -10359.367      305            34475.009      0.0089571045 
    306000  -10429.982      73.421258     -10356.561      306            34586.602      0.0089611327 
    307000  -10435.249      73.937536     -10361.312      307            34697.676      0.0090030414 
    308000  -10430.706      75.781471     -10354.925      308            34808.775      0.0090010174 
    309000  -10431.548      78.153937     -10353.394      309            34919.98       0.0089923333 
    310000  -10434.728      75.988604     -10358.74       310            35033.24       0.0088293039 
    311000  -10431.903      76.432197     -10355.471      311            35146.668      0.0088161101 
    312000  -10437.59       71.209742     -10366.38       312            35258.901      0.0089100696 
    313000  -10432.454      74.807102     -10357.647      313            35370.238      0.0089817157 
    314000  -10435.941      74.069373     -10361.871      314            35482.461      0.0089108545 
    315000  -10431.913      75.127338     -10356.786      315            35594.121      0.0089557158 
    316000  -10432.231      77.653913     -10354.578      316            35705.933      0.0089436121 
    317000  -10433.598      74.184501     -10359.413      317            35818.18       0.0089089128 
    318000  -10435.799      72.806218     -10362.992      318            35931.667      0.0088116011 
    319000  -10431.702      74.189972     -10357.512      319            36044.871      0.0088336003 
    320000  -10435.035      74.066373     -10360.968      320            36157.765      0.0088578926 
    321000  -10434.129      73.410111     -10360.719      321            36269.639      0.0089386024 
    322000  -10432.423      74.763067     -10357.66       322            36380.554      0.0090159029 
    323000  -10432.183      74.937053     -10357.246      323            36491.732      0.0089945732 
    324000  -10431.232      76.338143     -10354.894      324            36602.713      0.0090106041 
    325000  -10434.231      75.856234     -10358.375      325            36714.504      0.0089452114 
    326000  -10430.292      74.421949     -10355.87       326            36827.865      0.0088214389 
    327000  -10434.391      73.328586     -10361.062      327            36940.314      0.008892876  
    328000  -10432.263      74.152662     -10358.11       328            37052.689      0.008898748  
    329000  -10434.888      75.816897     -10359.072      329            37164.258      0.0089631121 
    330000  -10433.015      73.695994     -10359.319      330            37275.279      0.0090073157 
    331000  -10431.96       75.569924     -10356.39       331            37387.588      0.0089040195 
    332000  -10434.819      75.162472     -10359.657      332            37498.802      0.0089916528 
    333000  -10432.07       74.567031     -10357.503      333            37610.228      0.0089745478 
    334000  -10434.813      74.74234      -10360.071      334            37721.907      0.0089542212 
    335000  -10432.863      80.040691     -10352.822      335            37834.353      0.0088931605 
    336000  -10433.431      74.005057     -10359.426      336            37947.291      0.0088544564 
    337000  -10431.981      75.00351      -10356.977      337            38059.447      0.0089160865 
    338000  -10432.029      72.302114     -10359.727      338            38170.58       0.0089982668 
    339000  -10430.402      75.001424     -10355.4        339            38281.973      0.0089772097 
    340000  -10432.876      73.208111     -10359.668      340            38393.275      0.0089846023 
    341000  -10428.988      75.411298     -10353.577      341            38505.411      0.0089176821 
    342000  -10435.086      76.312755     -10358.773      342            38617.656      0.0089091473 
    343000  -10433.862      75.82028      -10358.042      343            38729.164      0.0089679057 
    344000  -10433.575      74.482176     -10359.092      344            38841.919      0.0088688172 
    345000  -10433.693      78.760185     -10354.932      345            38954.372      0.0088926348 
    346000  -10432.25       72.908608     -10359.342      346            39067.601      0.0088316422 
    347000  -10431.997      75.761865     -10356.235      347            39180.369      0.0088677656 
    348000  -10433.232      76.128742     -10357.103      348            39292.006      0.0089576231 
    349000  -10437.207      75.877909     -10361.329      349            39402.596      0.0090424062 
    350000  -10431.179      74.169648     -10357.01       350            39513.127      0.0090471807 
    351000  -10436.757      73.035893     -10363.721      351            39624.824      0.0089528065 
    352000  -10433.826      76.61074      -10357.215      352            39736.125      0.0089846604 
    353000  -10432.066      74.360388     -10357.706      353            39848.735      0.0088802154 
    354000  -10435.254      73.046407     -10362.208      354            39962.21       0.0088124866 
    355000  -10431.885      72.891817     -10358.993      355            40077.467      0.0086762917 
    356000  -10434.01       72.149294     -10361.861      356            40193.887      0.0085895608 
    357000  -10433.433      74.244335     -10359.188      357            40313.027      0.0083935244 
    358000  -10428.774      72.659452     -10356.115      358            40432.269      0.0083863114 
    359000  -10434.968      73.395476     -10361.572      359            40548.261      0.0086212483 
    360000  -10431.347      71.939444     -10359.408      360            40661.951      0.0087958414 
    361000  -10431.532      71.71927      -10359.813      361            40776.434      0.0087348935 
    362000  -10432.87       75.014255     -10357.855      362            40892.411      0.0086224186 
    363000  -10436.938      76.249962     -10360.688      363            41008.098      0.0086440388 
    364000  -10428.51       75.608725     -10352.901      364            41124.789      0.0085696076 
    365000  -10434.637      73.485981     -10361.151      365            41240.301      0.0086571162 
    366000  -10432.679      77.200738     -10355.478      366            41356.011      0.008642299  
    367000  -10431.629      72.28986      -10359.339      367            41470.595      0.0087272264 
    368000  -10434.524      76.407254     -10358.117      368            41586.785      0.0086066342 
    369000  -10432.049      72.265281     -10359.784      369            41703.767      0.0085482688 
    370000  -10429.972      73.719004     -10356.253      370            41818.528      0.0087138134 
    371000  -10434.909      73.706105     -10361.203      371            41934.192      0.0086456911 
    372000  -10431.571      73.359196     -10358.212      372            42048.633      0.0087381713 
    373000  -10433.384      75.125892     -10358.258      373            42164.216      0.0086517652 
    374000  -10430.967      75.15404      -10355.813      374            42280.143      0.0086261528 
    375000  -10432.067      74.485441     -10357.581      375            42398.961      0.008416228  
    376000  -10430.641      74.287633     -10356.353      376            42517.391      0.0084437589 
    377000  -10429.695      72.52258      -10357.173      377            42637.071      0.0083556404 
    378000  -10430.03       73.434268     -10356.596      378            42758.326      0.0082470624 
    379000  -10437.135      73.894251     -10363.241      379            42877.708      0.0083765022 
    380000  -10430.342      73.12978      -10357.213      380            42995.59       0.0084830692 
    381000  -10433.149      74.415445     -10358.734      381            43114.97       0.0083765527 
    382000  -10431.609      75.997995     -10355.611      382            43232.875      0.0084814469 
    383000  -10435.244      72.589356     -10362.655      383            43351.124      0.008456723  
    384000  -10433.901      74.499649     -10359.402      384            43466.822      0.0086431703 
    385000  -10434.555      74.669658     -10359.885      385            43579.669      0.008861555  
    386000  -10434.194      72.599638     -10361.594      386            43693.805      0.0087614821 
    387000  -10432.221      73.377868     -10358.843      387            43807.006      0.0088338701 
    388000  -10432.305      70.541662     -10361.763      388            43919.726      0.0088715646 
    389000  -10435.427      76.105633     -10359.322      389            44031.9        0.0089146907 
    390000  -10433.215      75.836101     -10357.379      390            44143.814      0.0089354404 
    391000  -10435.262      73.626478     -10361.635      391            44255.024      0.0089919944 
    392000  -10432.786      76.224731     -10356.561      392            44366.308      0.0089860006 
    393000  -10434.092      75.070832     -10359.021      393            44477.54       0.0089902584 
    394000  -10434.911      74.488848     -10360.422      394            44590.259      0.0088715954 
    395000  -10431.254      75.381321     -10355.873      395            44703.06       0.0088651835 
    396000  -10434.403      73.992739     -10360.41       396            44814.99       0.0089341607 
    397000  -10433.788      72.902316     -10360.885      397            44926.409      0.0089750708 
    398000  -10433.059      75.72759      -10357.331      398            45037.593      0.0089941225 
    399000  -10434.642      72.995571     -10361.646      399            45148.58       0.0090100677 
    400000  -10433.474      75.495328     -10357.979      400            45259.819      0.0089896931 
    401000  -10432.343      76.297345     -10356.045      401            45370.521      0.0090332303 
    402000  -10433.387      76.355831     -10357.031      402            45481.882      0.0089798408 
    403000  -10433.636      76.745304     -10356.891      403            45593.565      0.0089539049 
    404000  -10433.517      74.819899     -10358.697      404            45705.143      0.0089622748 
    405000  -10430.561      75.789351     -10354.772      405            45817.154      0.0089277248 
    406000  -10437.346      75.676489     -10361.669      406            45928.362      0.0089921657 
    407000  -10432.141      74.140928     -10358          407            46039.091      0.0090310951 
    408000  -10432.863      75.233408     -10357.63       408            46149.628      0.0090467407 
    409000  -10434.395      73.55878      -10360.837      409            46260.735      0.0090003149 
    410000  -10432.146      75.529235     -10356.616      410            46373.062      0.0089025686 
    411000  -10432.846      75.024436     -10357.821      411            46485.588      0.0088868381 
    412000  -10430.212      71.264856     -10358.947      412            46597.85       0.0089076889 
    413000  -10430.72       76.693644     -10354.027      413            46709.133      0.0089861701 
    414000  -10433.626      74.99192      -10358.634      414            46820.341      0.0089921421 
    415000  -10431.475      73.117585     -10358.358      415            46931.07       0.0090310155 
    416000  -10430.705      77.872077     -10352.833      416            47042.256      0.0089939651 
    417000  -10434.696      74.219854     -10360.476      417            47152.893      0.0090385304 
    418000  -10430.318      74.161696     -10356.156      418            47263.592      0.0090335442 
    419000  -10433.797      73.309978     -10360.487      419            47375.558      0.0089312592 
    420000  -10431.136      72.891801     -10358.244      420            47488.348      0.0088660316 
    421000  -10432.473      77.41569      -10355.058      421            47601.676      0.0088239564 
    422000  -10430.076      74.622848     -10355.453      422            47716.895      0.0086791589 
    423000  -10433.522      73.781634     -10359.741      423            47835.06       0.0084627207 
    424000  -10431.385      75.968576     -10355.417      424            47952.623      0.0085060917 
    425000  -10433.426      71.648017     -10361.778      425            48067.764      0.0086849624 
    426000  -10429.395      74.763677     -10354.631      426            48184.248      0.0085849234 
    427000  -10435.491      76.477011     -10359.014      427            48300.286      0.0086178548 
    428000  -10434.845      75.132172     -10359.713      428            48413.684      0.0088184646 
    429000  -10430.404      74.750128     -10355.654      429            48527.016      0.0088236835 
    430000  -10434.043      73.632923     -10360.41       430            48637.91       0.0090175788 
    431000  -10432.625      74.183321     -10358.442      431            48748.512      0.0090414213 
    432000  -10433.099      74.132793     -10358.966      432            48859.453      0.0090138379 
    433000  -10434.311      73.131943     -10361.179      433            48971.17       0.0089511984 
    434000  -10430.626      78.113271     -10352.513      434            49081.748      0.0090433626 
    435000  -10433.741      72.215019     -10361.526      435            49192.791      0.0090055402 
    436000  -10431.902      72.298747     -10359.603      436            49303.43       0.009038335  
    437000  -10436.816      74.336188     -10362.48       437            49416.09       0.0088762682 
    438000  -10434.737      76.213905     -10358.523      438            49529.307      0.0088325962 
    439000  -10430.926      76.614857     -10354.312      439            49642.711      0.0088180686 
    440000  -10431.86       74.614944     -10357.245      440            49755.041      0.0089023423 
    441000  -10432.85       71.533245     -10361.317      441            49865.858      0.0090239045 
    442000  -10432.575      77.569117     -10355.006      442            49977.373      0.008967382  
    443000  -10432.171      71.363147     -10360.808      443            50088.721      0.0089808585 
    444000  -10433.821      71.988528     -10361.833      444            50199.799      0.0090026783 
    445000  -10432.659      75.56825      -10357.091      445            50311.302      0.0089683268 
    446000  -10430.54       73.783299     -10356.757      446            50422.269      0.0090117064 
    447000  -10432.611      76.5816       -10356.029      447            50533.452      0.0089942255 
    448000  -10434.245      71.325163     -10362.92       448            50644.503      0.0090048878 
    449000  -10433.624      76.250377     -10357.373      449            50756.144      0.0089572167 
    450000  -10428.92       76.399825     -10352.52       450            50867.1        0.0090126142 
    451000  -10435.078      74.052533     -10361.025      451            50978.358      0.0089881287 
    452000  -10434.371      75.516443     -10358.854      452            51089.321      0.0090120084 
    453000  -10434.049      74.457758     -10359.591      453            51201.74       0.0088952769 
    454000  -10430.864      75.016039     -10355.848      454            51313.784      0.0089250683 
    455000  -10433.666      77.305549     -10356.361      455            51425.892      0.0089199552 
    456000  -10428.6        71.546082     -10357.054      456            51538.198      0.0089042949 
    457000  -10432.004      75.335167     -10356.669      457            51650.611      0.0088957218 
    458000  -10433.568      75.426766     -10358.142      458            51763.791      0.0088354722 
    459000  -10430.739      72.819792     -10357.919      459            51875.588      0.0089447817 
    460000  -10434.701      70.373365     -10364.327      460            51988.473      0.0088586091 
    461000  -10433.047      75.394553     -10357.653      461            52101.852      0.008819942  
    462000  -10433.876      72.310782     -10361.565      462            52213.743      0.0089373183 
    463000  -10432.844      78.336015     -10354.508      463            52325.041      0.0089848731 
    464000  -10432.106      70.331076     -10361.775      464            52437.192      0.0089165476 
    465000  -10434.569      75.17654      -10359.393      465            52547.926      0.0090306174 
    466000  -10433.036      73.203438     -10359.833      466            52659.026      0.0090009536 
    467000  -10435.478      73.333633     -10362.145      467            52769.92       0.0090176283 
    468000  -10432.434      74.800894     -10357.633      468            52880.758      0.0090221116 
    469000  -10435.806      74.713097     -10361.093      469            52992.335      0.0089624135 
    470000  -10430.658      76.227259     -10354.431      470            53103.255      0.0090155456 
    471000  -10436.833      78.472399     -10358.36       471            53214.115      0.0090203553 
    472000  -10431.543      75.486219     -10356.057      472            53324.863      0.0090295432 
    473000  -10434.247      75.40058      -10358.846      473            53435.446      0.0090430082 
    474000  -10431.258      72.92925      -10358.329      474            53546.322      0.0090190668 
    475000  -10433.188      75.55153      -10357.636      475            53657.415      0.0090014696 
    476000  -10430.651      73.65935      -10356.991      476            53768.062      0.0090377539 
    477000  -10435.212      75.824667     -10359.387      477            53879.008      0.009013403  
    478000  -10429.063      74.325277     -10354.737      478            53989.575      0.0090442599 
    479000  -10434.644      74.716486     -10359.928      479            54100.974      0.0089767503 
    480000  -10430.531      73.506808     -10357.024      480            54212.075      0.0090007742 
    481000  -10432.764      76.371757     -10356.392      481            54322.696      0.0090399181 
    482000  -10434.948      75.882845     -10359.065      482            54434.044      0.0089808226 
    483000  -10428.433      75.572992     -10352.86       483            54544.852      0.009024617  
    484000  -10431.527      71.990706     -10359.536      484            54656.228      0.0089786218 
    485000  -10432.409      76.532009     -10355.877      485            54767.354      0.0089987522 
    486000  -10433.867      73.704334     -10360.162      486            54877.883      0.0090474104 
    487000  -10430.508      76.429204     -10354.079      487            54988.686      0.0090250543 
    488000  -10432.2        73.254888     -10358.945      488            55099.04       0.0090617708 
    489000  -10434.158      75.434238     -10358.724      489            55209.581      0.0090463581 
    490000  -10431.15       73.259821     -10357.89       490            55320.631      0.0090049472 
    491000  -10430.611      74.55493      -10356.056      491            55432.471      0.0089414092 
    492000  -10432.327      74.100872     -10358.226      492            55543.096      0.0090395248 
    493000  -10433.75       76.393954     -10357.356      493            55654.245      0.0089969572 
    494000  -10429.673      74.94053      -10354.732      494            55765.496      0.008988659  
    495000  -10432.773      73.472526     -10359.301      495            55877.443      0.0089327588 
    496000  -10434.696      74.556753     -10360.139      496            55989.601      0.0089160169 
    497000  -10430.137      74.1096       -10356.027      497            56101.371      0.0089469618 
    498000  -10432.748      72.337643     -10360.411      498            56213.282      0.0089356766 
    499000  -10431.466      75.550922     -10355.915      499            56324.409      0.008998693  
    500000  -10434.875      71.935932     -10362.939      500            56435.739      0.0089822899 
    501000  -10434.422      74.852005     -10359.57       501            56547.418      0.0089542436 
    502000  -10430.809      74.911711     -10355.898      502            56660.416      0.0088497361 
    503000  -10431.814      75.713883     -10356.1        503            56773.972      0.0088062213 
    504000  -10433.909      76.180158     -10357.729      504            56887.311      0.0088230611 
    505000  -10434.451      73.835032     -10360.616      505            57000.55       0.0088309281 
    506000  -10429.174      74.592625     -10354.581      506            57114.667      0.0087628911 
    507000  -10433.357      71.038891     -10362.319      507            57229.893      0.0086786406 
    508000  -10429.111      72.621983     -10356.489      508            57343.86       0.0087744457 
    509000  -10435.411      74.828723     -10360.583      509            57457.84       0.008773488  
    510000  -10432.402      75.590114     -10356.812      510            57569.961      0.008918898  
    511000  -10432.281      74.205633     -10358.076      511            57682.768      0.0088647154 
    512000  -10434.822      74.692562     -10360.13       512            57795.562      0.0088657361 
    513000  -10429.906      76.051273     -10353.855      513            57908.054      0.0088895061 
    514000  -10432.329      73.657506     -10358.672      514            58020.216      0.0089157195 
    515000  -10429.654      80.222107     -10349.432      515            58132.056      0.0089413015 
    516000  -10433.138      75.340032     -10357.798      516            58244.33       0.0089067888 
    517000  -10432.524      77.068682     -10355.455      517            58356.502      0.0089149032 
    518000  -10434.43       75.298336     -10359.131      518            58467.679      0.0089946147 
    519000  -10430.918      76.262025     -10354.656      519            58579.536      0.0089400164 
    520000  -10431.821      72.189482     -10359.631      520            58690.805      0.0089872145 
    521000  -10434.87       77.424171     -10357.446      521            58802.105      0.0089847293 
    522000  -10429.956      73.280807     -10356.676      522            58912.945      0.0090220246 
    523000  -10432.508      75.886746     -10356.622      523            59024.189      0.0089892552 
    524000  -10434.633      75.122334     -10359.51       524            59135.283      0.0090013596 
    525000  -10429.829      74.23949      -10355.589      525            59246.633      0.0089806918 
    526000  -10432.438      74.135477     -10358.303      526            59357.441      0.0090246705 
    527000  -10432.66       72.95783      -10359.702      527            59468.424      0.0090103175 
    528000  -10432.589      76.697668     -10355.891      528            59580.102      0.0089543896 
    529000  -10435.302      74.37335      -10360.929      529            59691.256      0.0089965149 
    530000  -10433.306      74.888358     -10358.418      530            59803.739      0.0088901691 
    531000  -10435.74       74.139933     -10361.6        531            59916.101      0.0088998557 
    532000  -10434.091      72.673174     -10361.418      532            60029.483      0.0088196973 
    533000  -10432.934      77.588592     -10355.345      533            60143.281      0.0087875666 
    534000  -10435.353      75.366285     -10359.987      534            60257.851      0.0087282336 
    535000  -10431.782      76.184982     -10355.597      535            60372.205      0.008744804  
    536000  -10432.975      74.198545     -10358.777      536            60487.329      0.0086862638 
    537000  -10429.936      73.640192     -10356.296      537            60603.434      0.0086129049 
    538000  -10433.119      72.47721      -10360.642      538            60722.056      0.0084301082 
    539000  -10431.536      76.336994     -10355.199      539            60840.925      0.0084126226 
    540000  -10435.979      75.521418     -10360.458      540            60959.648      0.0084230059 
    541000  -10437.536      75.0284       -10362.507      541            61076.816      0.0085347291 
    542000  -10434.003      74.98842      -10359.015      542            61193.139      0.0085967526 
    543000  -10432.574      76.867424     -10355.707      543            61309.509      0.0085932737 
    544000  -10432.697      70.238329     -10362.459      544            61424.476      0.008698184  
    545000  -10431.064      72.78656      -10358.278      545            61538.903      0.0087391514 
    546000  -10433.677      74.021075     -10359.656      546            61651.211      0.008904084  
    547000  -10428.475      73.67346      -10354.801      547            61763.116      0.0089361926 
    548000  -10430.441      71.947556     -10358.493      548            61874.625      0.0089678994 
    549000  -10430.356      77.461391     -10352.895      549            61985.723      0.0090010089 
    550000  -10434.956      73.851861     -10361.104      550            62096.343      0.0090399702 
    551000  -10434.588      74.985305     -10359.603      551            62207.096      0.0090291217 
    552000  -10432.363      74.34245      -10358.02       552            62317.736      0.0090383284 
    553000  -10433.602      71.567888     -10362.034      553            62429.847      0.0089197266 
    554000  -10432.152      75.593394     -10356.559      554            62541.98       0.0089180076 
    555000  -10430.353      74.69194      -10355.661      555            62654.663      0.0088744414 
    556000  -10434.006      72.342116     -10361.664      556            62766.893      0.0089102607 
    557000  -10431.111      75.69682      -10355.414      557            62878.922      0.0089262365 
    558000  -10434.151      72.310184     -10361.841      558            62990.464      0.0089652818 
    559000  -10432.953      74.880272     -10358.073      559            63101.578      0.0089997189 
    560000  -10433.551      73.382959     -10360.168      560            63213.514      0.0089337037 
    561000  -10433.914      74.92855      -10358.985      561            63324.451      0.0090141339 
    562000  -10430.837      74.616074     -10356.221      562            63435.398      0.0090133355 
    563000  -10434.187      73.28342      -10360.903      563            63547.027      0.0089582122 
    564000  -10437.912      75.768773     -10362.144      564            63659.036      0.0089278837 
    565000  -10432.222      74.169801     -10358.052      565            63771.136      0.0089205456 
    566000  -10434.069      71.263533     -10362.806      566            63883.119      0.0089299876 
    567000  -10434.009      75.150258     -10358.859      567            63994.921      0.0089443699 
    568000  -10435.223      77.012088     -10358.211      568            64106.137      0.0089914743 
    569000  -10433.551      72.976445     -10360.574      569            64216.743      0.0090410862 
    570000  -10431.44       75.078504     -10356.361      570            64327.258      0.0090485408 
    571000  -10434.021      74.184756     -10359.836      571            64438.952      0.0089530992 
    572000  -10432.551      74.775155     -10357.776      572            64549.084      0.0090799586 
    573000  -10431.762      72.959254     -10358.803      573            64658.999      0.0090980036 
    574000  -10431.909      73.618308     -10358.291      574            64769.959      0.0090122266 
    575000  -10434.175      73.092879     -10361.082      575            64880.902      0.0090136494 
    576000  -10435.281      74.48039      -10360.8        576            64992.475      0.0089627004 
    577000  -10434.794      78.383233     -10356.411      577            65105.4        0.0088554357 
    578000  -10431.691      75.079851     -10356.611      578            65217.771      0.0088990869 
    579000  -10433.96       74.604333     -10359.356      579            65328.515      0.0090298381 
    580000  -10431.021      73.991137     -10357.03       580            65438.686      0.009076842  
    581000  -10434.889      77.046968     -10357.842      581            65548.943      0.0090697149 
    582000  -10431.764      76.483551     -10355.28       582            65659.584      0.0090382535 
    583000  -10429.612      70.041126     -10359.571      583            65770.241      0.009036901  
    584000  -10432.696      76.269166     -10356.427      584            65881.554      0.0089836949 
    585000  -10433.747      71.878052     -10361.869      585            65992.47       0.0090158281 
    586000  -10433.171      76.04613      -10357.125      586            66104.046      0.0089624735 
    587000  -10434.54       74.632745     -10359.907      587            66216.83       0.0088664966 
    588000  -10432.446      76.40542      -10356.041      588            66328.769      0.0089334559 
    589000  -10436.772      76.560456     -10360.211      589            66439.632      0.009020154  
    590000  -10433.556      77.536353     -10356.02       590            66549.964      0.0090635602 
    591000  -10431.943      75.150389     -10356.792      591            66660.003      0.0090876897 
    592000  -10432.886      75.129623     -10357.756      592            66771.441      0.0089735724 
    593000  -10435.914      75.517825     -10360.396      593            66881.885      0.0090543879 
    594000  -10430.255      75.180636     -10355.074      594            66993.478      0.0089611605 
    595000  -10434.344      73.204677     -10361.14       595            67106.135      0.008876485  
    596000  -10431.971      76.844714     -10355.127      596            67218.468      0.0089021067 
    597000  -10433.046      72.953945     -10360.093      597            67330.455      0.008929598  
    598000  -10431.198      75.519166     -10355.679      598            67441.796      0.0089814397 
    599000  -10433.98       73.501524     -10360.479      599            67552.347      0.009045585  
    600000  -10430.394      73.951261     -10356.443      600            67662.614      0.0090688564 
    601000  -10431.466      73.032634     -10358.434      601            67773.876      0.0089878174 
    602000  -10430.771      74.244176     -10356.526      602            67884.232      0.0090616019 
    603000  -10433.551      74.296065     -10359.255      603            67994.953      0.0090316685 
    604000  -10430.734      75.578902     -10355.155      604            68105.711      0.0090286703 
    605000  -10433.952      75.085255     -10358.867      605            68216.751      0.0090058273 
    606000  -10435.25       77.930041     -10357.32       606            68329.884      0.008839115  
    607000  -10435.334      75.989598     -10359.345      607            68445.783      0.008628238  
    608000  -10434.365      75.608566     -10358.756      608            68561.722      0.0086251944 
    609000  -10429.729      77.297449     -10352.432      609            68678.875      0.0085358576 
    610000  -10433.774      74.637606     -10359.136      610            68795.243      0.0085934339 
    611000  -10430.416      72.891014     -10357.525      611            68912.131      0.0085551617 
    612000  -10436.22       73.338191     -10362.882      612            69030.216      0.0084685111 
    613000  -10433.666      75.46352      -10358.203      613            69148.471      0.0084563147 
    614000  -10433.231      75.306876     -10357.924      614            69266.512      0.0084715993 
    615000  -10432.689      73.583588     -10359.105      615            69384.472      0.0084774992 
    616000  -10431.006      71.6312       -10359.375      616            69505.321      0.008274776  
    617000  -10429.741      75.896246     -10353.845      617            69623.229      0.0084811587 
    618000  -10431.963      72.788075     -10359.175      618            69739.543      0.0085973977 
    619000  -10429.177      75.03927      -10354.138      619            69853.648      0.0087639132 
    620000  -10430.95       73.736729     -10357.214      620            69968.993      0.0086696371 
    621000  -10434.35       72.596202     -10361.754      621            70080.665      0.0089547362 
    622000  -10435.361      75.589206     -10359.772      622            70192.562      0.0089368204 
    623000  -10432.496      70.504718     -10361.991      623            70304.861      0.0089048131 
    624000  -10432.765      72.404386     -10360.36       624            70416.329      0.0089711869 
    625000  -10433.251      75.309368     -10357.942      625            70527.325      0.009009362  
    626000  -10434.138      75.58562      -10358.553      626            70637.929      0.0090412679 
    627000  -10435.129      74.514856     -10360.614      627            70747.94       0.0090899842 
    628000  -10433.466      72.057788     -10361.408      628            70858.111      0.0090767815 
    629000  -10430.815      73.480499     -10357.334      629            70969.433      0.0089829833 
    630000  -10433.8        72.438516     -10361.362      630            71080.081      0.009037624  
    631000  -10430.91       75.229646     -10355.681      631            71190.427      0.0090624256 
    632000  -10432.228      71.846074     -10360.381      632            71300.946      0.0090482153 
    633000  -10431.38       74.133117     -10357.247      633            71411.312      0.0090607796 
    634000  -10434.751      73.511717     -10361.239      634            71521.842      0.0090472911 
    635000  -10431.351      73.875348     -10357.476      635            71632.632      0.0090260768 
    636000  -10431.348      74.723452     -10356.625      636            71743.013      0.0090595163 
    637000  -10430.718      75.032158     -10355.686      637            71853.413      0.0090580067 
    638000  -10432.293      74.764979     -10357.528      638            71964.058      0.0090379212 
    639000  -10433.821      77.06576      -10356.755      639            72074.682      0.0090395955 
    640000  -10431.94       72.829208     -10359.111      640            72186.517      0.0089417785 
    641000  -10432.172      75.023773     -10357.148      641            72297.949      0.0089740777 
    642000  -10433.415      73.803125     -10359.612      642            72409.361      0.0089756499 
    643000  -10431.635      75.977764     -10355.657      643            72522.145      0.0088665478 
    644000  -10436.696      75.258914     -10361.437      644            72633.998      0.0089402836 
    645000  -10432.262      74.710142     -10357.552      645            72746.762      0.0088680797 
    646000  -10433.915      74.372809     -10359.543      646            72859.569      0.0088647244 
    647000  -10430.532      74.944601     -10355.588      647            72972.137      0.0088834741 
    648000  -10433.433      73.516476     -10359.917      648            73084.589      0.0088926874 
    649000  -10431.41       73.832834     -10357.577      649            73196.801      0.0089117242 
    650000  -10433.887      73.064076     -10360.823      650            73308.428      0.0089583636 
    651000  -10433.964      74.850082     -10359.114      651            73421.276      0.008861489  
    652000  -10433.745      76.099679     -10357.645      652            73532.901      0.0089585988 
    653000  -10434.586      75.61637      -10358.969      653            73645.353      0.0088926787 
    654000  -10435.188      76.062684     -10359.126      654            73761.576      0.0086041516 
    655000  -10432.623      71.495603     -10361.128      655            73878.739      0.0085351404 
    656000  -10431.379      76.082326     -10355.296      656            73996.247      0.0085100548 
    657000  -10433.658      72.158517     -10361.5        657            74115.131      0.0084115723 
    658000  -10430.975      74.437972     -10356.537      658            74233.326      0.0084605733 
    659000  -10432.699      71.710899     -10360.988      659            74350.628      0.0085249698 
    660000  -10430.637      74.911625     -10355.725      660            74467.477      0.0085581073 
    661000  -10434.61       75.107307     -10359.503      661            74584.998      0.0085090689 
    662000  -10432.785      75.179824     -10357.605      662            74699.359      0.0087442804 
    663000  -10435.288      73.673705     -10361.614      663            74811.418      0.0089238694 
    664000  -10430.795      75.168918     -10355.626      664            74923.724      0.0089042141 
    665000  -10432.615      71.417747     -10361.198      665            75036.049      0.0089027216 
    666000  -10428.679      78.625092     -10350.054      666            75148.165      0.0089193546 
    667000  -10433.369      73.093184     -10360.276      667            75260.205      0.0089253715 
    668000  -10434.011      75.231288     -10358.78       668            75371.971      0.0089472659 
    669000  -10434.67       72.253298     -10362.416      669            75483.272      0.0089846861 
    670000  -10432.566      74.087255     -10358.478      670            75594.857      0.0089617183 
    671000  -10432.377      77.408313     -10354.969      671            75706.478      0.008958935  
    672000  -10433.736      74.300664     -10359.435      672            75818.711      0.0089100005 
    673000  -10431.62       74.982054     -10356.638      673            75929.108      0.009058276  
    674000  -10434.423      76.582395     -10357.84       674            76039.649      0.009046341  
    675000  -10434.711      74.366641     -10360.345      675            76150.845      0.0089931766 
    676000  -10430.671      74.207262     -10356.464      676            76261.74       0.0090175281 
    677000  -10432.655      72.456607     -10360.198      677            76372.726      0.0090101238 
    678000  -10433.157      76.779781     -10356.377      678            76483.467      0.0090301036 
    679000  -10434.456      76.795729     -10357.66       679            76594.46       0.0090095525 
    680000  -10434.537      74.703115     -10359.834      680            76705.548      0.0090019056 
    681000  -10435.183      76.569261     -10358.613      681            76816.212      0.0090363803 
    682000  -10432.978      75.062597     -10357.915      682            76926.791      0.0090432523 
    683000  -10428.693      78.122935     -10350.57       683            77037.719      0.0090149043 
    684000  -10434.964      72.746458     -10362.218      684            77148.238      0.0090482202 
    685000  -10430.095      72.922803     -10357.172      685            77258.468      0.0090719185 
    686000  -10432.735      72.995397     -10359.739      686            77369.13       0.0090365414 
    687000  -10431.933      74.533033     -10357.4        687            77479.231      0.0090825115 
    688000  -10432.103      72.262038     -10359.841      688            77590.842      0.0089597654 
    689000  -10434.606      74.561239     -10360.045      689            77701.282      0.009054662  
    690000  -10432.591      73.56594      -10359.025      690            77811.934      0.0090373406 
    691000  -10429.375      73.067779     -10356.307      691            77922.042      0.0090819823 
    692000  -10432.263      73.275563     -10358.987      692            78033.382      0.0089814681 
    693000  -10431.572      78.917231     -10352.655      693            78144.182      0.0090252822 
    694000  -10432.09       72.985365     -10359.105      694            78255.009      0.0090231016 
    695000  -10431.216      73.411038     -10357.805      695            78365.775      0.0090280033 
    696000  -10435.018      71.626416     -10363.391      696            78476.065      0.009067065  
    697000  -10432.145      75.435268     -10356.71       697            78586.697      0.0090389824 
    698000  -10433.148      72.339238     -10360.809      698            78697.818      0.0089991639 
    699000  -10431.769      73.664077     -10358.105      699            78809.006      0.008993784  
    700000  -10435.133      73.584358     -10361.549      700            78919.526      0.0090481189 
    701000  -10430.289      74.559331     -10355.73       701            79028.731      0.0091571095 
    702000  -10434.378      74.677339     -10359.701      702            79137.728      0.009174546  
    703000  -10428.266      71.768199     -10356.498      703            79247.728      0.0090909342 
    704000  -10433.142      73.82396      -10359.318      704            79358.652      0.0090151909 
    705000  -10433.16       75.243342     -10357.917      705            79469.628      0.0090109036 
    706000  -10433.997      72.499495     -10361.498      706            79581.256      0.008958351  
    707000  -10432.182      76.19041      -10355.992      707            79694.344      0.0088426973 
    708000  -10435.234      72.258043     -10362.976      708            79807.635      0.0088267687 
    709000  -10432.212      75.663539     -10356.549      709            79920.85       0.008832767  
    710000  -10434.562      72.294399     -10362.268      710            80033.572      0.0088714218 
    711000  -10432.236      74.945502     -10357.29       711            80146.188      0.0088797209 
    712000  -10433.121      71.636174     -10361.484      712            80257.278      0.009001682  
    713000  -10430.546      73.175758     -10357.37       713            80369.325      0.0089248412 
    714000  -10428.665      72.983925     -10355.682      714            80481.169      0.008941021  
    715000  -10434.597      75.041831     -10359.555      715            80593.425      0.0089082333 
    716000  -10430.196      72.344736     -10357.851      716            80704.621      0.0089930831 
    717000  -10432.609      75.196864     -10357.413      717            80815.346      0.0090313987 
    718000  -10435.404      73.692624     -10361.712      718            80925.669      0.0090643253 
    719000  -10431.953      73.131753     -10358.821      719            81036.197      0.0090474672 
    720000  -10433.897      77.2827       -10356.614      720            81146.546      0.0090621874 
    721000  -10432.861      72.506218     -10360.354      721            81257.278      0.0090307805 
    722000  -10429.789      75.447214     -10354.342      722            81366.912      0.009121258  
    723000  -10434.997      75.686171     -10359.311      723            81476.464      0.009128065  
    724000  -10430.402      79.393068     -10351.009      724            81586.694      0.0090719366 
    725000  -10434.585      75.312685     -10359.272      725            81697.057      0.0090609983 
    726000  -10435.441      73.334165     -10362.107      726            81807.677      0.0090400117 
    727000  -10432.726      76.275243     -10356.45       727            81918.021      0.0090625727 
    728000  -10434.508      72.511158     -10361.997      728            82030.071      0.0089245445 
    729000  -10430.377      72.82355      -10357.554      729            82142.331      0.0089079477 
    730000  -10434.001      70.698605     -10363.302      730            82253.58       0.00898879   
    731000  -10430.927      74.750956     -10356.176      731            82365.462      0.0089379669 
    732000  -10432.938      72.343593     -10360.594      732            82476.41       0.0090132963 
    733000  -10431.325      76.031253     -10355.294      733            82587.407      0.0090092215 
    734000  -10430.425      72.445086     -10357.98       734            82698.015      0.0090409801 
    735000  -10431.398      69.65208      -10361.746      735            82808.444      0.0090555524 
    736000  -10431.683      73.276535     -10358.407      736            82919.046      0.0090414066 
    737000  -10432.586      73.060571     -10359.525      737            83030.263      0.008991436  
    738000  -10432.926      71.852832     -10361.073      738            83141.246      0.0090104269 
    739000  -10431.421      75.055272     -10356.366      739            83251.449      0.0090741088 
    740000  -10434.492      77.49506      -10356.997      740            83362.51       0.0090040652 
    741000  -10430.675      73.094271     -10357.58       741            83472.963      0.0090536297 
    742000  -10432.644      73.659547     -10358.985      742            83584.293      0.0089823331 
    743000  -10431.005      73.574957     -10357.43       743            83695.878      0.0089617786 
    744000  -10433.167      72.8932       -10360.274      744            83809.896      0.0087705304 
    745000  -10431.46       76.893159     -10354.567      745            83925.919      0.008618994  
    746000  -10434.857      74.997532     -10359.859      746            84043.876      0.0084776452 
    747000  -10433.177      76.009535     -10357.168      747            84159.399      0.0086563354 
[...]
    888000  -10434.012      73.281426     -10360.731      888            99988.374      0.0084088574 
    889000  -10431.207      74.067508     -10357.139      889            100107.17      0.0084176452 
    890000  -10434.44       72.541208     -10361.899      890            100222.52      0.0086690815 
    891000  -10432.635      77.008888     -10355.626      891            100336.27      0.0087918146 
    892000  -10433.532      72.244282     -10361.288      892            100449.87      0.0088026409 
    893000  -10431.562      73.455984     -10358.106      893            100562.64      0.0088672269 
    894000  -10435.467      74.007795     -10361.459      894            100674.9       0.0089078635 
    895000  -10434.911      71.917271     -10362.994      895            100787.33      0.0088951397 
    896000  -10433.517      74.811608     -10358.706      896            100898.89      0.0089635369 
    897000  -10430.866      78.925499     -10351.94       897            101011.31      0.0088952349 
    898000  -10431.741      73.029052     -10358.712      898            101122.8       0.0089693423 
    899000  -10430.628      75.4101       -10355.218      899            101233.98      0.0089945753 
    900000  -10433.824      74.436933     -10359.387      900            101345.14      0.0089960346 
    901000  -10435.225      74.574828     -10360.65       901            101456.38      0.0089897337 
    902000  -10432.992      75.135539     -10357.857      902            101568.12      0.0089487884 
    903000  -10428.135      74.797234     -10353.338      903            101679.51      0.0089778783 
    904000  -10431.562      73.710217     -10357.852      904            101790.49      0.0090106659 
    905000  -10432.765      75.530963     -10357.234      905            101901.6       0.0089997696 
    906000  -10432.221      74.559397     -10357.662      906            102013.21      0.0089600139 
    907000  -10433.892      72.900034     -10360.992      907            102124.18      0.0090112254 
    908000  -10434.071      77.734563     -10356.337      908            102235.8       0.0089590479 
    909000  -10431.058      74.840563     -10356.218      909            102346.41      0.0090410741 
    910000  -10434.578      76.236069     -10358.342      910            102456.97      0.0090444634 
    911000  -10430.052      76.044446     -10354.008      911            102567.79      0.0090237216 
    912000  -10432.341      75.283667     -10357.057      912            102678.71      0.0090157743 
    913000  -10433.968      75.105227     -10358.862      913            102791.04      0.0089016613 
    914000  -10432.307      75.72427      -10356.583      914            102903.4       0.0089001002 
    915000  -10432.567      73.343404     -10359.224      915            103016.08      0.0088746365 
    916000  -10430.879      74.594067     -10356.284      916            103128.63      0.0088855131 
    917000  -10434.535      73.70128      -10360.834      917            103241.19      0.0088836959 
    918000  -10430.196      74.004675     -10356.191      918            103353.07      0.0089383049 
    919000  -10436.478      72.128324     -10364.349      919            103464.7       0.0089584209 
    920000  -10431.085      76.184415     -10354.9        920            103576.44      0.008949084  
    921000  -10432.001      72.627716     -10359.373      921            103688.31      0.0089386774 
    922000  -10432.849      72.439845     -10360.409      922            103800.57      0.0089082827 
    923000  -10431.101      71.965611     -10359.136      923            103912.25      0.0089543781 
    924000  -10431.989      73.178181     -10358.811      924            104023.78      0.0089655467 
    925000  -10430.279      75.183299     -10355.096      925            104134.7       0.0090160284 
    926000  -10431.205      73.381579     -10357.823      926            104246.16      0.0089714547 
    927000  -10431.577      73.805119     -10357.772      927            104357.21      0.0090050133 
    928000  -10433.161      77.211654     -10355.949      928            104468.01      0.0090254616 
    929000  -10434.677      73.667274     -10361.009      929            104579.25      0.0089899152 
    930000  -10429.956      72.960139     -10356.996      930            104690.21      0.0090118901 
    931000  -10433.772      74.924911     -10358.847      931            104801.43      0.0089914231 
    932000  -10433.448      72.712386     -10360.736      932            104912.22      0.0090255976 
    933000  -10431.292      74.881968     -10356.41       933            105022.64      0.0090569392 
    934000  -10434.458      73.292076     -10361.166      934            105134.37      0.0089493928 
    935000  -10425.533      73.875575     -10351.657      935            105245.37      0.009009345  
    936000  -10432.07       74.767902     -10357.302      936            105356.44      0.0090032783 
    937000  -10434.11       75.764386     -10358.346      937            105466.09      0.0091200699 
    938000  -10428.351      75.058553     -10353.293      938            105576.06      0.0090930123 
    939000  -10432.231      73.935974     -10358.295      939            105686.56      0.0090498924 
    940000  -10431.059      75.727827     -10355.331      940            105797.47      0.0090164141 
    941000  -10432.64       72.68924      -10359.951      941            105907.89      0.0090566216 
    942000  -10429.528      76.16947      -10353.358      942            106019.4       0.0089678227 
    943000  -10433.833      73.100076     -10360.733      943            106130.37      0.0090113403 
    944000  -10429.981      75.525268     -10354.456      944            106242.13      0.0089479443 
    945000  -10431.764      74.228414     -10357.535      945            106353.71      0.0089621086 
    946000  -10433.832      72.772257     -10361.06       946            106464.84      0.008998656  
    947000  -10427.524      73.3548       -10354.169      947            106576.47      0.0089579882 
    948000  -10431.004      72.742626     -10358.261      948            106688.81      0.0089013537 
    949000  -10431.604      73.397995     -10358.206      949            106803.06      0.008752969  
    950000  -10434.092      74.615515     -10359.476      950            106918.75      0.0086435169 
    951000  -10433.487      74.783556     -10358.704      951            107034.32      0.0086529398 
    952000  -10435.818      74.267188     -10361.551      952            107149.22      0.0087027576 
    953000  -10434.957      74.553373     -10360.403      953            107265.96      0.0085665392 
    954000  -10431.423      75.057024     -10356.366      954            107382.46      0.00858384   
    955000  -10433.13       75.156778     -10357.974      955            107499.92      0.0085132881 
    956000  -10432.674      76.250802     -10356.423      956            107619.52      0.0083613124 
    957000  -10432.481      73.106762     -10359.374      957            107736.01      0.0085841765 
    958000  -10430.716      74.724373     -10355.992      958            107853.16      0.0085358232 
    959000  -10430.62       71.906596     -10358.713      959            107969.02      0.0086317608 
    960000  -10433.367      75.977776     -10357.389      960            108085.23      0.008604909  
    961000  -10430.799      74.366607     -10356.432      961            108202.28      0.0085432966 
    962000  -10431.688      73.201571     -10358.486      962            108319         0.0085676856 
    963000  -10434.923      75.332637     -10359.591      963            108436.45      0.0085139087 
    964000  -10432.996      74.645317     -10358.351      964            108553.26      0.0085611953 
    965000  -10430.748      71.747354     -10359          965            108670.44      0.0085338432 
    966000  -10430.698      78.233612     -10352.464      966            108787.48      0.0085439828 
    967000  -10432.9        73.316913     -10359.583      967            108904.48      0.0085466318 
    968000  -10427.217      76.663375     -10350.554      968            109021.34      0.0085574396 
    969000  -10436.986      74.748415     -10362.237      969            109136.96      0.0086492382 
    970000  -10434.12       74.818689     -10359.301      970            109253.91      0.0085504053 
    971000  -10435.477      72.543971     -10362.933      971            109370.4       0.0085847188 
    972000  -10433.886      73.077117     -10360.808      972            109481.67      0.0089869171 
    973000  -10433.053      77.854732     -10355.198      973            109594.9       0.0088314303 
    974000  -10434.109      73.171648     -10360.937      974            109705.65      0.0090298913 
    975000  -10434.254      73.500889     -10360.753      975            109816.76      0.0089996504 
    976000  -10434.364      73.795315     -10360.569      976            109927.88      0.0089990365 
    977000  -10438.382      76.462991     -10361.919      977            110040.32      0.0088939334 
    978000  -10432.802      74.888815     -10357.914      978            110152.53      0.0089118593 
    979000  -10433.181      72.299991     -10360.881      979            110263.24      0.0090326426 
    980000  -10429.496      72.246383     -10357.25       980            110373.46      0.0090726261 
    981000  -10433.513      74.265949     -10359.247      981            110483.56      0.009083021  
    982000  -10430.716      73.399135     -10357.317      982            110594.86      0.0089844445 
    983000  -10431.287      70.224112     -10361.063      983            110705.85      0.0090099521 
    984000  -10434.994      72.883134     -10362.111      984            110816.56      0.009032512  
    985000  -10437.77       73.330347     -10364.44       985            110927.4       0.0090218412 
    986000  -10432.655      74.723613     -10357.931      986            111038.15      0.009029692  
    987000  -10430.82       77.591299     -10353.228      987            111149.57      0.0089752415 
    988000  -10430.624      71.907747     -10358.716      988            111260.34      0.0090277006 
    989000  -10433.797      74.722451     -10359.074      989            111371.23      0.0090173452 
    990000  -10432.687      75.648898     -10357.038      990            111482.37      0.0089977427 
    991000  -10431.623      75.095274     -10356.528      991            111593.86      0.0089698225 
    992000  -10436.961      74.649004     -10362.312      992            111704.86      0.0090092313 
    993000  -10434.519      74.014806     -10360.504      993            111816.93      0.0089229493 
    994000  -10430.494      75.75217      -10354.742      994            111928.79      0.0089395138 
    995000  -10433.67       74.84311      -10358.827      995            112039.58      0.0090262608 
    996000  -10430.832      74.464761     -10356.367      996            112151.03      0.0089726429 
    997000  -10433.485      74.006541     -10359.479      997            112262.24      0.0089918137 
    998000  -10432.925      75.715573     -10357.209      998            112374.52      0.0089059593 
    999000  -10434.432      73.417183     -10361.015      999            112485.91      0.0089775058 
   1000000  -10434.156      75.152304     -10359.003      1000           112597.45      0.0089659296 
Loop time of 112597 on 16 procs for 1000000 steps with 1152 atoms

Performance: 0.767 ns/day, 31.277 hours/ns, 8.881 timesteps/s, 10.231 katom-step/s
99.3% CPU use with 16 MPI tasks x 1 OpenMP threads

MPI task timing breakdown:
Section |  min time  |  avg time  |  max time  |%varavg| %total
---------------------------------------------------------------
Pair    | 32280      | 33501      | 34399      | 351.4 | 29.75
Neigh   | 358.66     | 379.64     | 421.89     |  95.7 |  0.34
Comm    | 1842.1     | 2669.2     | 3832.1     |1243.2 |  2.37
Output  | 0.19629    | 0.20922    | 0.37816    |   9.5 |  0.00
Modify  | 75946      | 76038      | 76109      |  20.5 | 67.53
Other   |            | 9.032      |            |       |  0.01

Nlocal:             72 ave          77 max          67 min
Histogram: 1 2 1 0 3 2 3 0 1 3
Nghost:        849.875 ave         859 max         844 min
Histogram: 2 1 2 3 4 0 3 0 0 1
Neighs:              0 ave           0 max           0 min
Histogram: 16 0 0 0 0 0 0 0 0 0
FullNghs:      7089.25 ave        7689 max        6178 min
Histogram: 1 0 2 1 0 2 3 4 1 2

Total # of neighbors = 113428
Ave neighs/atom = 98.461806
Neighbor list builds = 2000000
Dangerous builds = 0

unfix temp

min_style cg
fix 0 all box/relax aniso 0 vmax 0.001
minimize 0 0 100000 100000
Per MPI rank memory allocation (min/avg/max) = 5.539 | 5.542 | 5.543 Mbytes
   Step         PotEng         KinEng         TotEng          Time           CPU           T/CPU     
   1000000  -10434.156      75.152304     -10359.003      1000           0              0            
   1001000  -10510.236      75.152304     -10435.084      1001           53.569538      0.018667325  
   1002000  -10510.4        75.152304     -10435.248      1002           122.57489      0.01449163   
   1003000  -10510.405      75.152304     -10435.253      1003           191.96205      0.014411889  
   1004000  -10510.409      75.152304     -10435.257      1004           261.40127      0.014401083  
   1005000  -10510.41       75.152304     -10435.258      1005           330.91589      0.014385462  
   1006000  -10510.41       75.152304     -10435.258      1006           400.92594      0.014283665  
   1007000  -10510.41       75.152304     -10435.258      1007           470.66222      0.014339737  
   1008000  -10510.41       75.152304     -10435.258      1008           540.16625      0.014387655  
   1009000  -10510.41       75.152304     -10435.258      1009           609.58517      0.014405295  
   1010000  -10510.41       75.152304     -10435.258      1010           679.87938      0.014225922  
   1011000  -10510.41       75.152304     -10435.258      1011           749.33285      0.01439813   
   1012000  -10510.41       75.152304     -10435.258      1012           818.67228      0.014421809  
   1013000  -10510.41       75.152304     -10435.258      1013           888.06829      0.014410051  
   1014000  -10510.41       75.152304     -10435.258      1014           958.04064      0.014291358  
   1015000  -10510.41       75.152304     -10435.258      1015           1027.763       0.014342598  
   1016000  -10510.41       75.152304     -10435.258      1016           1097.314       0.014377951  
   1017000  -10510.41       75.152304     -10435.258      1017           1166.7307      0.014405756  
   1018000  -10510.41       75.152304     -10435.258      1018           1236.3584      0.014362097  
   1019000  -10510.41       75.152304     -10435.258      1019           1306.2049      0.014317099  
   1020000  -10510.41       75.152304     -10435.258      1020           1375.8271      0.014363239  
   1021000  -10510.41       75.152304     -10435.258      1021           1445.4996      0.014352869  
   1022000  -10510.41       75.152304     -10435.258      1022           1514.8674      0.01441591   
   1023000  -10510.41       75.152304     -10435.258      1023           1586.0326      0.014051816  
   1024000  -10510.41       75.152304     -10435.258      1024           1655.7237      0.014349026  
   1025000  -10510.41       75.152304     -10435.258      1025           1725.5152      0.014328395  
   1026000  -10510.41       75.152304     -10435.258      1026           1795.056       0.014380048  
   1027000  -10510.41       75.152304     -10435.258      1027           1865.3732      0.014221281  
   1028000  -10510.41       75.152304     -10435.258      1028           1934.9723      0.014367987  
   1029000  -10510.41       75.152304     -10435.258      1029           2004.3699      0.014409736  
   1030000  -10510.41       75.152304     -10435.258      1030           2073.6355      0.014437169  
   1031000  -10510.41       75.152304     -10435.258      1031           2143.3499      0.014344244  
   1032000  -10510.41       75.152304     -10435.258      1032           2213.2515      0.014305816  
   1033000  -10510.41       75.152304     -10435.258      1033           2282.8217      0.014373978  
   1034000  -10510.41       75.152304     -10435.258      1034           2352.0525      0.014444426  
   1035000  -10510.41       75.152304     -10435.258      1035           2421.6606      0.014366151  
   1036000  -10510.41       75.152304     -10435.258      1036           2490.9577      0.014430623  
   1037000  -10510.41       75.152304     -10435.258      1037           2560.3646      0.014407792  
   1038000  -10510.41       75.152304     -10435.258      1038           2629.9058      0.014379968  
   1039000  -10510.41       75.152304     -10435.258      1039           2699.431       0.014383257  
   1040000  -10510.41       75.152304     -10435.258      1040           2769.4699      0.014277787  
   1041000  -10510.41       75.152304     -10435.258      1041           2837.7133      0.014653431  
   1042000  -10510.41       75.152304     -10435.258      1042           2905.7929      0.014688681  
   1043000  -10510.41       75.152304     -10435.258      1043           2974.2169      0.014614772  
   1044000  -10510.41       75.152304     -10435.258      1044           3041.9819      0.014756877  
   1045000  -10510.41       75.152304     -10435.258      1045           3110.0665      0.014687607  
   1046000  -10510.41       75.152304     -10435.258      1046           3178.4573      0.014621846  
   1047000  -10510.41       75.152304     -10435.258      1047           3246.8914      0.014612603  
   1048000  -10510.41       75.152304     -10435.258      1048           3315.339       0.014609715  
   1049000  -10510.41       75.152304     -10435.258      1049           3384.6016      0.014437809  
   1050000  -10510.41       75.152304     -10435.258      1050           3453.0133      0.01461738   
   1050252  -10510.41       75.152304     -10435.258      1050.252       3470.3579      0.014528977  
Loop time of 3470.36 on 16 procs for 50252 steps with 1152 atoms

99.3% CPU use with 16 MPI tasks x 1 OpenMP threads

Minimization stats:
  Stopping criterion = max force evaluations
  Energy initial, next-to-last, final = 
     -10434.1556722607  -10510.4104409845  -10510.4104409845
  Force two-norm initial, final = 69.754906 8.7927478e-11
  Force max component initial, final = 40.027009 6.9722143e-11
  Final line search alpha, max atom move = 1 6.9722143e-11
  Iterations, force evaluations = 50252 100001

MPI task timing breakdown:
Section |  min time  |  avg time  |  max time  |%varavg| %total
---------------------------------------------------------------
Pair    | 2808.2     | 3081.7     | 3333.1     | 263.2 | 88.80
Neigh   | 0.00067545 | 0.0007489  | 0.00099084 |   0.0 |  0.00
Comm    | 58.552     | 275.73     | 576.93     | 831.2 |  7.95
Output  | 0.0063776  | 0.0070023  | 0.015338   |   2.6 |  0.00
Modify  | 0          | 0          | 0          |   0.0 |  0.00
Other   |            | 112.9      |            |       |  3.25

Nlocal:             72 ave          77 max          67 min
Histogram: 1 2 1 0 3 2 3 0 1 3
Nghost:            850 ave         859 max         844 min
Histogram: 2 1 2 3 4 0 3 0 0 1
Neighs:              0 ave           0 max           0 min
Histogram: 16 0 0 0 0 0 0 0 0 0
FullNghs:      7126.12 ave        7722 max        6211 min
Histogram: 1 0 2 1 0 2 3 4 1 2

Total # of neighbors = 114018
Ave neighs/atom = 98.973958
Neighbor list builds = 2
Dangerous builds = 0

write_data data.CSRO
System init for write_data ...

print "all done"
all done
Total wall time: 32:14:28
