LAMMPS data file via write_data, version 22 Dec 2022, timestep = 1050448

1152 atoms
5 atom types

0.00146525898809494 14.778069991836992 xlo xhi
0.0032866135556139224 15.672777784411988 ylo yhi
0.003239226786984562 68.26051001771062 zlo zhi

Masses

1 180.948
2 92.9064
3 50.9415
4 95.94
5 183.84

Atoms # atomic

379 3 3.167571937767713 1.234802040410963 3.307414038144583 -3 -2 1
400 3 0.6720771182497699 0.31563457184128607 3.307389398779842 -3 -2 1
401 3 0.6934710673322877 2.900512497241482 3.312730008355741 -3 -2 1
329 3 1.9328436802514855 2.041525672187814 1.1965226049480737 -3 -2 1
406 3 3.170666444994531 3.7793747900233425 3.3127714418619365 -3 -2 1
385 3 5.6502348521814145 2.057943888650625 3.2903499651519947 -3 -2 1
291 3 6.870356437047272 1.2010138122590979 1.1960549787779122 -3 -2 1
308 3 4.420793849819779 2.9236294128448113 1.1810616774106864 -3 -2 1
307 3 4.4349644927073 0.3194693679942494 1.1530608003475729 -3 -2 1
315 3 6.886746018392309 3.791619064897576 1.1672048781284663 -3 -2 1
413 3 10.56746920184097 1.1645028078432997 3.279780819299595 -4 -2 1
368 3 8.130539710352998 0.3208202765168705 3.2659229202557007 -3 -2 1
369 3 8.11519213110818 2.917944207609501 3.2856152358230677 -3 -2 1
297 3 9.356930839695092 2.0575455447331725 1.1801343388470797 -3 -2 1
374 3 10.568380204508308 3.767016181810012 3.2817932383074058 -4 -2 1
323 3 14.241059803225152 1.1591469750930088 1.193955679794062 -4 -2 1
342 3 11.79049503996741 2.9013076477957553 1.167221310831986 -4 -2 1
419 3 13.014772789966319 2.023961519582321 3.291896106418201 -4 -2 1
341 3 11.799000298268352 0.2821342075373041 1.1691257812174054 -4 -2 1
349 3 14.232630273293847 3.7663927944465847 1.1831529448808762 -4 -2 1
423 3 0.6875071319581056 5.487896103061555 3.3248720856976846 -3 -2 1
942 3 3.201133838011043 6.35952513225049 3.3439874000565686 -3 -2 1
330 3 1.9338306063563484 4.592865675672273 1.192519630871878 -3 -2 1
886 2 1.9391706603614145 7.254720789686685 1.1751307478999327 -3 -2 1
386 3 5.654579140268574 4.644857620353169 3.290237380732426 -3 -2 1
336 3 4.442819944671904 5.504411194329052 1.180947329441722 -3 -2 1
857 3 6.885646576273408 6.376797355264107 1.1733903717467056 -3 -2 1
948 3 5.657728534010128 7.237290199057472 3.293156843691194 -3 -2 1
389 3 8.116583448904064 5.505562987272837 3.2872377790844505 -3 -2 1
978 3 10.571463883374777 6.368062141971085 3.2849540114698246 -4 -2 1
298 3 9.342749657135837 4.649248184073179 1.167479372287104 -3 -2 1
860 3 9.33448684550477 7.24411144092917 1.1718858375345442 -3 -2 1
339 3 11.78146133812768 5.5093628593734225 1.1645464221572597 -4 -2 1
420 3 13.01712232701698 4.62656838950069 3.2894404049543327 -4 -2 1
883 3 14.186476201538891 6.363815876750224 1.1698854112663222 -4 -2 1
984 3 13.020969009109844 7.240662745224147 3.286886806979645 -4 -2 1
402 3 1.938687538481625 2.040383051617969 5.431730145900344 -3 -2 1
396 3 0.7096792622702688 0.300711387606755 7.534023888576239 -3 -2 1
375 3 3.183174966090618 1.1793760081081481 7.556061424430898 -3 -2 1
397 3 0.7273053100631178 2.88683188059785 7.532230002797672 -3 -2 1
404 3 3.2035040360943983 3.7683171318081135 7.547815774101381 -3 -2 1
380 3 4.396498569457999 0.3499506265928911 5.4548062404026725 -3 -2 1
363 3 6.886563616920105 1.2347652162715081 5.42673714028992 -3 -2 1
381 3 4.413932865528181 2.915990404862123 5.425419086191289 -3 -2 1
382 3 5.652967046982686 2.049373219674014 7.556069297273285 -3 -2 1
370 3 9.34109405861123 2.03730957515418 5.410941289012083 -3 -2 1
364 3 8.125684790596708 0.3265880101814502 7.579502763260749 -3 -2 1
365 3 8.113103546302387 2.8977663804579885 7.545241926351293 -3 -2 1
409 3 10.572467059291697 1.1626253241909266 7.536484992867692 -4 -2 1
414 3 11.78861848312469 0.2884589054203915 5.405009934267236 -4 -2 1
395 3 14.24056935171894 1.1597943750454507 5.411625167821597 -4 -2 1
415 3 11.789980919073255 2.8876860271493276 5.4017494782284246 -4 -2 1
416 3 13.027354793744541 2.0175621256798526 7.517301577682731 -4 -2 1
964 3 1.9513587268265047 7.24703217742357 5.422954672875322 -3 -2 1
403 3 1.944458539279233 4.6342927554519155 5.430061552056911 -3 -2 1
940 3 3.202342974577798 6.368945484777186 7.5472400066701235 -3 -2 1
422 3 0.7688123212542147 5.469134864429606 7.486945206083327 -3 -2 1
407 3 4.418979436787759 5.5073894255606275 5.421199060922754 -3 -2 1
944 3 5.643878472233931 7.226271845559505 7.53740968271695 -3 -2 1
387 3 6.88278378561586 3.774081298050217 5.412583519980947 -3 -2 1
933 3 6.88494910506095 6.361393231549166 5.406654083351338 -3 -2 1
383 3 5.658992228342411 4.6336244164184 7.539559252238912 -3 -2 1
938 3 9.341936916003782 7.218232679900693 5.400769074897492 -3 -2 1
424 3 10.563881700103495 3.7450209596798265 7.519796622269685 -4 -2 1
371 3 9.340081373020054 4.6243771446798085 5.402381002162018 -3 -2 1
388 3 8.104817575572577 5.484186434393582 7.523385681943423 -3 -2 1
976 3 10.54718832277223 6.328634193097056 7.492351405528353 -4 -2 1
421 3 14.250074577222914 3.7541664558456302 5.411072656112714 -4 -2 1
362 3 11.794135179734672 5.483082231190459 5.39370396184957 -4 -2 1
959 3 14.262233108897496 6.363802885587927 5.405186192700518 -4 -2 1
980 3 13.042998029225727 7.229687486613239 7.434952030250453 -4 -2 1
417 3 13.022890754796014 4.589943613003668 7.4973565811769065 -4 -2 1
477 3 0.7489117251607333 0.30744086226695344 11.770680347272119 -3 -2 1
452 3 3.2068235462588683 1.1555999461019986 11.792317959475707 -3 -2 1
478 3 0.782026015779673 2.8699790101835023 11.7514167523011 -3 -2 1
398 3 1.9798202555995572 2.0249918244666976 9.659689704011594 -3 -2 1
459 3 5.663740582111236 2.03342314560684 11.816720567111833 -3 -2 1
376 3 4.418334483202946 0.3060366949784473 9.68448870924773 -3 -2 1
360 3 6.878990313164703 1.1786865907947432 9.697124752660628 -3 -2 1
377 3 4.443504334019636 2.9041799573712654 9.676320469493582 -3 -2 1
384 3 6.892825562886656 3.7629127813423486 9.675904526200146 -3 -2 1
493 3 10.560972124294533 1.1814262284750021 11.805464198760497 -4 -2 1
439 3 8.0849319550898 0.3093451408434416 11.819864508276499 -3 -2 1
440 3 8.1097191273318 2.9010398304020137 11.821858334390962 -3 -2 1
366 3 9.337688426778426 2.03100542130008 9.678759288719426 -3 -2 1
507 3 10.546496042962135 3.7508140441171633 11.812236155969176 -4 -2 1
410 3 11.808617035198376 0.3051770324096582 9.659212674403433 -4 -2 1
500 3 13.029219926942035 2.01745175727536 11.772264465658633 -4 -2 1
411 3 11.797039845630417 2.8739663147701573 9.650383736554572 -4 -2 1
392 3 14.273933820688464 1.1588151919649095 9.643278920696538 -4 -2 1
483 3 3.2345625157268536 3.757723369457121 11.800952960974655 -3 -2 1
399 3 2.0302541835560373 4.6041984199749315 9.665825778604885 -3 -2 1
504 3 0.8398019425348516 5.479001051149028 11.832095980149695 -3 -2 1
1018 3 3.243040949095649 6.368401344309105 11.81312541163224 -3 -2 1
961 3 2.0460539290706903 7.25402750652492 9.679226854773365 -3 -2 1
460 3 5.673932377616317 4.630527006728405 11.807644138293927 -3 -2 1
1026 3 5.645742913302215 7.227925683413373 11.812004886902132 -3 -2 1
405 3 4.453053405604887 5.492915230442368 9.670238978091712 -3 -2 1
932 3 6.867151676206092 6.356646623230899 9.65999038361733 -3 -2 1
1060 3 10.478765143050072 6.320378770023801 11.825881468479045 -4 -2 1
463 3 8.091039822754144 5.487482514392333 11.808551286112326 -3 -2 1
367 3 9.325783405265737 4.609564416444011 9.661698400787472 -3 -2 1
935 3 9.249523192975875 7.20267547176324 9.648828087084738 -3 -2 1
418 3 14.288088998255704 3.6836104000669945 9.651142096592265 -4 -2 1
501 3 12.994102148316024 4.554332623914587 11.777479707315893 -4 -2 1
958 2 14.333230531052543 6.3296230229504395 9.628522525242488 -4 -2 1
391 3 11.744055132299486 5.397635912453086 9.643888316966706 -4 -2 1
1067 2 13.037586831510456 7.225911848389824 11.876123514143826 -4 -2 1
479 3 1.9860097438043687 1.9977240028758074 13.912459131826527 -3 -2 1
472 3 0.7320988720684769 0.36098842978070267 16.11177517990119 -3 -2 1
447 3 3.1728406281102823 1.1170791146539316 16.09350103359894 -3 -2 1
473 3 0.68143994924702 2.887453291512449 16.161320155179137 -3 -2 1
481 2 3.1780701726575598 3.7855543886471628 16.115214237438213 -3 -2 1
453 3 4.406153630508113 0.2896616493413372 13.936017350192081 -3 -2 1
434 3 6.859273306677848 1.170441377364682 13.951462112859183 -3 -2 1
454 3 4.452969386759739 2.8833469013420774 13.90769496338684 -3 -2 1
455 3 5.617177589798514 2.043323193120683 16.04771428784958 -3 -2 1
441 3 9.318813077044156 2.054794875729239 13.960269679671084 -3 -2 1
435 3 8.036802836070649 0.3157737075754937 16.028876670444337 -3 -2 1
488 3 10.539527446154512 1.2677060513040272 16.07807040017149 -4 -2 1
436 3 8.085671523643724 2.941064489038799 16.09646685638843 -3 -2 1
471 3 14.28218630845172 1.1351397874244253 13.928527945146007 -4 -2 1
494 3 11.79696919553262 0.3870884443240611 13.927726860410877 -4 -2 1
495 3 11.74158924948453 2.9004172348432773 13.957251735601204 -4 -2 1
496 3 13.025560623759842 2.065396261894459 16.12504193437623 -4 -2 1
1043 3 2.011024758241086 7.250773562548665 13.97583809169111 -3 -2 1
480 3 2.0164483565680387 4.677552135262186 13.908457599109495 -3 -2 1
503 3 0.7110553323284724 5.556945038345439 16.159862087191442 -3 -2 1
1015 3 3.2122985506416 6.440998426080714 16.136574023104835 -3 -2 1
1008 3 6.867412497782757 6.364478858416094 13.95771399271614 -3 -2 1
484 3 4.4572169594808 5.5213327624877175 13.941908431003032 -3 -2 1
461 3 6.876443501520757 3.7780643797049733 13.956463567809871 -3 -2 1
456 3 5.683965657697527 4.668074098436257 16.111091774114747 -3 -2 1
1020 3 5.65670831748687 7.241240948556786 16.123812940425523 -3 -2 1
1013 3 9.306981104771369 7.163415539093887 13.96566900800025 -3 -2 1
442 3 9.308160957170823 4.6326696491430335 13.969393003001093 -3 -2 1
505 3 10.547147223537863 3.791708778515958 16.124400871835743 -4 -2 1
462 3 8.084404405902536 5.50604229064002 16.11446645392519 -3 -2 1
1057 3 10.545006965418033 6.353261074030073 16.13063566903537 -4 -2 1
1037 3 14.311915929919772 6.408619745922134 14.03194018238572 -4 -2 1
1062 3 13.03456443082034 7.229153795389142 16.146531176972726 -4 -2 1
497 3 12.993468416427737 4.66642563831025 16.17411404699976 -4 -2 1
502 2 14.271429014899793 3.7680889715319 13.958840639682263 -4 -2 1
492 3 11.737913558381475 5.487888759183866 14.004550254212587 -4 -2 1
444 3 3.1339766408922434 1.1368642757838983 20.395018412911764 -3 -2 1
468 3 0.6952366519003236 2.9191663055375083 20.42729656701229 -3 -2 1
474 3 1.9090847009914824 2.0338221804050804 18.291910210667787 -3 -2 1
546 3 0.7275619117794347 0.2986744692019839 20.434044298814296 -3 -2 1
450 3 5.592117089683058 2.018287367676471 20.396047792113148 -3 -2 1
448 3 4.329279178319427 0.271910093258651 18.267050940037368 -3 -2 1
449 3 4.370360913220195 2.9174689187066196 18.309286484614326 -3 -2 1
430 2 6.814369699872714 1.1803340009962187 18.26085572690565 -3 -2 1
457 3 6.852788734712864 3.8496739862305915 18.26368123354363 -3 -2 1
437 3 9.347589229682939 2.1407549460676365 18.28952598478604 -3 -2 1
486 3 10.574963107275709 1.1947547571628316 20.515805254971372 -4 -2 1
431 3 8.093406438961653 0.26946182612685504 20.519372464710433 -3 -2 1
519 3 8.140700344782308 2.914855344278387 20.391903958304823 -3 -2 1
566 3 10.573201208720816 3.7872126337335246 20.438498812469497 -4 -2 1
561 3 13.055144645842088 2.0675389984634744 20.46560542967091 -4 -2 1
489 2 11.860001216654068 0.33616756375540263 18.310525348155522 -4 -2 1
467 3 14.319421179373236 1.1999671574979172 18.297360625388457 -4 -2 1
490 3 11.793122144585068 2.9856119990902874 18.301717441931658 -4 -2 1
476 3 3.1209095666480082 3.807706992354722 20.37839483971158 -3 -2 1
1039 3 1.9615408185277332 7.261451063716729 18.294863080541372 -3 -2 1
499 3 0.6989858454090659 5.526693635394898 20.417852016125682 -3 -2 1
1100 3 3.172941542188724 6.408534797838691 20.422704978267774 -3 -2 1
475 3 1.9051728416355733 4.683938306853307 18.32865594615108 -3 -2 1
534 3 5.613754743630711 4.6983774196306864 20.36413084398369 -3 -2 1
1017 3 5.641869769938266 7.264047107449204 20.416655840298212 -3 -2 1
1007 3 6.871136510929012 6.386602073250222 18.266991273242457 -3 -2 1
482 3 4.410198279884084 5.547336315565447 18.299704903654874 -3 -2 1
1056 3 10.567967625936953 6.3722784963022985 20.402492968326232 -4 -2 1
458 3 8.120032834348198 5.541918447038592 20.393579039775112 -3 -2 1
438 3 9.321535678045917 4.658462427216966 18.270552841009724 -3 -2 1
1010 3 9.33607005364093 7.224615467090224 18.26860789045573 -3 -2 1
498 3 14.241951794160263 3.794418902181316 18.29307058950287 -4 -2 1
1036 3 14.25392501711508 6.386184117397752 18.28925407914071 -4 -2 1
1059 3 13.02635355180188 7.239262279667921 20.403883112717505 -4 -2 1
491 3 13.021081012278051 4.647298859788695 20.420111038952864 -4 -2 1
506 3 11.787850832314314 5.5084340833566525 18.27524772171409 -4 -2 1
547 3 1.8957369994203708 2.0094056081614537 22.551126264867158 -3 -2 1
525 3 3.1888918677788003 1.1077680203078601 24.724871127422585 -3 -2 1
543 3 0.7489270898259748 2.9065402026435496 24.678018636684417 -3 -2 1
549 3 3.1735939953969305 3.771518309037776 24.733276946894225 -3 -2 1
542 3 0.7697683514118503 0.26324711523467476 24.658047683953775 -3 -2 1
529 3 4.400589831558639 0.20636649429685394 22.567675343954456 -3 -2 1
530 2 4.362327192613466 2.875523639556475 22.555714875813894 -3 -2 1
514 3 6.889084887476066 1.0633689926157555 22.569385755683044 -3 -2 1
531 3 5.664574238143991 1.943133990310836 24.748853344518235 -3 -2 1
520 3 9.376950257328305 1.9940629253925597 22.585125229639758 -3 -2 1
553 3 10.576347514621071 1.1371490160208828 24.709985407940543 -4 -2 1
515 3 8.107562786751469 0.2446127601096255 24.713558424486877 -3 -2 1
516 3 8.132759080462035 2.8298305822613745 24.7365559816396 -3 -2 1
564 3 10.599444810249516 3.7406866037063984 24.676815803411838 -4 -2 1
556 3 11.820111545609137 0.2871299213883787 22.57063438376115 -4 -2 1
541 3 14.286015599872549 1.171218858971049 22.56019086716341 -4 -2 1
557 3 11.81247965632198 2.8956359470973685 22.574906152189964 -4 -2 1
558 3 13.029614736805595 2.0409204260311857 24.664959810710492 -4 -2 1
562 3 14.261489042935638 3.7773321786446656 22.554816383768255 -4 -2 1
1119 3 1.9795349266170226 7.2489783278224165 22.50610619569671 -3 -2 1
548 3 1.9178244836668543 4.661449602663301 22.549537409398663 -3 -2 1
1098 3 3.2392938451676074 6.362140168631247 24.661309934865116 -3 -2 1
563 3 0.7280361961017471 5.429420479137499 24.679934765958713 -3 -2 1
535 2 6.923259349684989 3.7837618550571466 22.55942500139775 -3 -2 1
1091 3 6.879160669230227 6.454917901700477 22.563101987775347 -3 -2 1
551 3 4.399528749515623 5.588169655176204 22.557594311343617 -3 -2 1
1102 3 5.654430321468022 7.282887730059137 24.704411818453647 -3 -2 1
532 3 5.648202865306018 4.669394619434553 24.752922324655994 -3 -2 1
1096 3 9.329025764382333 7.259985596577971 22.548600014583887 -3 -2 1
521 3 9.397943564246647 4.663015105135483 22.557841422140104 -3 -2 1
536 3 8.106997856873749 5.566292574621439 24.688205546064193 -3 -2 1
1129 3 10.504423749616398 6.391586339444572 24.680850971755053 -4 -2 1
511 3 11.778226084120467 5.49181628266618 22.527392666298965 -4 -2 1
1132 2 12.965115479583055 7.2381174366976895 24.702194393248718 -4 -2 1
1114 3 14.26702490579273 6.350978712681844 22.484614156362014 -4 -2 1
559 3 13.029421077608156 4.5802934398058275 24.704541028665894 -4 -2 1
45 3 0.8222345934215646 0.27196978446320513 29.042645544124863 -3 -2 0
24 3 3.201409794043313 1.123575336835659 29.002467017488655 -3 -2 0
46 3 0.7494498324445623 2.904323634097715 29.02698019433624 -3 -2 0
544 3 2.036533311650725 2.024487502275032 26.849502686794672 -3 -2 1
51 3 3.127575162362139 3.7177064048714765 28.984153466823518 -3 -2 0
30 3 5.6403440006940615 1.9256195134298941 29.000588642520416 -3 -2 0
526 3 4.431491523828174 0.23488438773250758 26.852382345603857 -3 -2 1
512 3 6.8722202156145675 1.1037076366944607 26.853516319973654 -3 -2 1
527 3 4.417792356988675 2.836631643691576 26.823103245012447 -3 -2 1
533 3 6.85682886732025 3.7004940493961898 26.80395913413022 -3 -2 1
58 3 10.543987468288593 1.1600331355567415 28.98915331378182 -4 -2 0
14 3 8.121731518361118 2.8256969400519263 29.018849736643965 -3 -2 0
517 3 9.333635964619583 1.9535558315212425 26.854212205936815 -3 -2 1
13 3 8.103975605764575 0.260286460592235 28.99683989552557 -3 -2 0
560 3 14.277523785158351 3.809973715348956 26.85958565462319 -4 -2 1
555 3 11.811491551303305 2.8849627633708224 26.85975607263006 -4 -2 1
64 3 13.033538394516919 2.0878569679755246 29.042756224078442 -4 -2 0
554 3 11.739062373148137 0.27661398033737344 26.805201465168402 -4 -2 1
539 2 14.304083622964116 1.165794764389933 26.83839268138949 -4 -2 1
68 3 0.694653480070857 5.496195164445428 29.042466921189476 -3 -2 0
577 3 3.158552627456791 6.4095779753170214 29.011258477246646 -3 -2 0
545 3 1.9660359330575659 4.577644594998856 26.845027574961303 -3 -2 1
1116 2 1.9680263244933918 7.2529762122097114 26.901262181659376 -3 -2 1
1090 3 6.875732646879303 6.433712221273697 26.829991777043272 -3 -2 1
31 2 5.665282540752267 4.601186687490321 28.95796314952302 -3 -2 0
550 3 4.431146709529127 5.513563954948017 26.79385216514261 -3 -2 1
583 3 5.6572890628643036 7.3319553288758454 28.975100441105145 -3 -2 0
71 3 10.595859923226731 3.7375459548767322 29.045844722293946 -4 -2 0
34 3 8.14028976868086 5.538725432456394 29.046555619624712 -3 -2 0
613 3 10.56881610210087 6.387625907498052 29.03035598738912 -4 -2 0
518 2 9.347658116447754 4.633142771882365 26.8625593438215 -3 -2 1
1093 3 9.318870417760213 7.316847675785042 26.856054487805565 -3 -2 1
65 3 13.033307837931583 4.63191413318523 29.024566111910094 -4 -2 0
565 3 11.830246164440952 5.503666965663791 26.898344993949802 -4 -2 1
1113 3 14.209999574806446 6.336804171024101 26.93518979192091 -4 -2 1
619 3 13.001874804243972 7.251728752344284 29.02986148273525 -4 -2 0
41 3 0.7210566697164983 0.29350719883178417 33.2690298822394 -3 -2 0
47 3 1.9565682496739039 2.0124051099918208 31.152951154823835 -3 -2 0
42 3 0.7250268670995572 2.884668047434019 33.2745250495104 -3 -2 0
49 3 3.166162834567211 3.7269282726706825 33.29441713336414 -3 -2 0
20 3 3.1734272141122726 1.1388822839719244 33.27104859210129 -3 -2 0
26 3 4.395040057284558 2.8033420186607443 31.156609124191963 -3 -2 0
25 3 4.411383556440858 0.26016207287791665 31.13956465255419 -3 -2 0
8 3 6.872389003153897 1.1244072653587422 31.131996828217726 -3 -2 0
27 3 5.63203615571486 1.9968034914980355 33.26486141895633 -3 -2 0
15 3 9.33466101340394 2.000869001341036 31.12229733610248 -3 -2 0
9 3 8.093131192417014 0.2804500383348581 33.24815251480768 -3 -2 0
54 3 10.572978968109188 1.1561653794177347 33.24534172035776 -4 -2 0
10 3 8.10344453223896 2.866322796851787 33.25080043948703 -3 -2 0
69 3 10.574424487847452 3.7449158077416316 33.24107295073214 -4 -2 0
59 3 11.783803306533674 0.3063810787586925 31.168805067164584 -4 -2 0
40 3 14.296579102104943 1.1720137051001065 31.16304647928593 -4 -2 0
60 3 11.813282846882348 2.8917850457204253 31.132347757119987 -4 -2 0
61 3 13.0490341265818 2.0282436656550353 33.259388343509585 -4 -2 0
66 3 14.277491978427093 3.768754203880507 31.151542466291115 -4 -2 0
599 3 1.9189811182906733 7.290723323267969 31.147618907368322 -3 -2 0
48 3 1.8909502235008875 4.615383583521098 31.14855306623887 -3 -2 0
67 3 0.7317028051969087 5.493445767222117 33.27026082993623 -3 -2 0
575 3 3.167234748691574 6.398895228008559 33.312745158555785 -3 -2 0
32 3 6.915618410802525 3.7008990538202804 31.174174155251457 -3 -2 0
568 3 6.933426931490121 6.403309094243145 31.14198575477881 -3 -2 0
52 2 4.38756398861405 5.518540519966562 31.170315609111757 -3 -2 0
28 3 5.666042512315362 4.594138666453515 33.3033914850964 -3 -2 0
579 3 5.666608078447842 7.265766994600427 33.27318707392329 -3 -2 0
33 3 8.105914597245416 5.4740259252547325 33.251242021622595 -3 -2 0
573 3 9.331561566803792 7.231902314206078 31.123091872114774 -3 -2 0
16 3 9.343489841403073 4.610829577672739 31.13575662860111 -3 -2 0
611 3 10.559356284771534 6.324027729541969 33.233636907558015 -4 -2 0
615 3 13.082325212248481 7.203722552697083 33.210636501833456 -4 -2 0
62 3 13.04850711817269 4.617055077960353 33.2586605472218 -4 -2 0
72 3 11.798709857415348 5.491878979143153 31.142417984254674 -4 -2 0
594 3 14.25761095949668 6.379113061452822 31.150632495927592 -4 -2 0
96 3 3.1797487956352795 1.141135766114272 37.511660225567795 -3 -2 0
117 3 0.7255159932806433 0.2932976046233355 37.51478968230351 -3 -2 0
118 3 0.7383214735782467 2.881038117968155 37.51045214411662 -3 -2 0
43 3 1.9527434288094536 2.012861790120153 35.39254509715254 -3 -2 0
123 3 3.181129605275131 3.7213618836913547 37.49163050518129 -3 -2 0
102 3 5.641298722029375 2.0004860553272237 37.50208363688866 -3 -2 0
22 3 4.4072777719080385 2.8650606275265584 35.38754566660523 -3 -2 0
5 3 6.859451180965091 1.144157741694949 35.37471904158636 -3 -2 0
21 3 4.395759666904722 0.27559850722631996 35.384428998600704 -3 -2 0
29 3 6.873055886498977 3.7318704114051156 35.3763580991666 -3 -2 0
85 3 8.096527126753804 0.28989845799284186 37.50004771848306 -3 -2 0
130 3 10.57796007374661 1.153731037626858 37.505971593279284 -4 -2 0
86 3 8.108990837316135 2.860159977684329 37.49360566311556 -3 -2 0
11 3 9.33519680835436 2.0096497059665133 35.364601746400396 -3 -2 0
143 3 10.582512241532461 3.7257774564247743 37.499919810616966 -4 -2 0
136 3 13.055484313116521 2.0207437140270947 37.5121656232368 -4 -2 0
56 3 11.811317503244808 2.879718149051778 35.374166710409504 -4 -2 0
55 3 11.81746323184951 0.3038703276745634 35.382776438082914 -4 -2 0
37 3 14.273459430201193 1.1650210678329243 35.392466158533026 -4 -2 0
63 3 14.28389699229408 3.744578293502119 35.38347323416846 -4 -2 0
140 3 0.7516494372602557 5.480000068759362 37.49696739479597 -3 -2 0
649 3 3.186562113438779 6.3742591605501975 37.46197873350546 -3 -2 0
44 3 1.9670300424527127 4.609730723937861 35.3885758106135 -3 -2 0
596 3 1.9890895312554628 7.238806504636085 35.37851312625397 -3 -2 0
567 3 6.876249908842572 6.343462282973823 35.380534224554104 -3 -2 0
103 3 5.6708488592003805 4.581864674338308 37.46578172729904 -3 -2 0
50 3 4.433091452594756 5.483932555706652 35.38500542283446 -3 -2 0
655 3 5.65184795632644 7.226615955666066 37.47401549284193 -3 -2 0
106 3 8.11212024318336 5.454157382790133 37.513218807553464 -3 -2 0
685 3 10.572115045783033 6.307530492640663 37.52542647966545 -4 -2 0
12 3 9.341187416418604 4.591275822305161 35.375104769569994 -3 -2 0
570 3 9.289677468862608 7.138021063196453 35.382464388460846 -3 -2 0
691 3 13.0809770666125 7.170823299927067 37.52306658230994 -4 -2 0
137 3 13.059914985038958 4.602007882910777 37.495799222437164 -4 -2 0
70 3 11.820153414844537 5.412739222764349 35.37521154214978 -4 -2 0
593 3 14.319750504204638 6.3257063000365426 35.37435208823696 -4 -2 0
119 3 1.963612954627888 2.0148692891024886 39.645123661060886 -3 -2 0
92 3 3.1917480316369002 1.1626728460556055 41.77508127679006 -3 -2 0
114 3 0.7408488840726614 2.89357529051309 41.77923763365112 -3 -2 0
113 3 0.7529264549708814 0.312630008610671 41.75255951490185 -3 -2 0
121 3 3.173646533920193 3.7418111751268244 41.8062214791394 -3 -2 0
98 3 4.418205341582622 2.8259396186576544 39.64311644720523 -3 -2 0
80 3 6.8772249692862975 1.1421218227845578 39.62710640760329 -3 -2 0
97 3 4.4134313198432595 0.2818141710145719 39.63712581295483 -3 -2 0
99 3 5.642391556479535 2.0160595620029387 41.77684466956059 -3 -2 0
104 3 6.899421249603033 3.719325033771756 39.63708530438349 -3 -2 0
87 3 9.330431787822112 1.9892297260407767 39.61552990240388 -3 -2 0
126 3 10.572072865486152 1.1053521968773865 41.77732893531002 -4 -2 0
82 3 8.056453844994946 2.8603801635592574 41.774165629484614 -3 -2 0
141 2 10.575247174158443 3.7452981595655785 41.77467479661288 -4 -2 0
81 3 8.110918160070707 0.2965363332468311 41.74867519577102 -3 -2 0
131 3 11.821548325868386 0.2948643707787757 39.64747539328327 -4 -2 0
112 3 14.295173247385497 1.158656426189198 39.64302969192536 -4 -2 0
132 3 11.850341432730653 2.8640386663043924 39.596284247225924 -4 -2 0
133 3 13.078032268467798 2.012410692493272 41.77461417378094 -4 -2 0
138 3 14.290407546099177 3.7531494615917493 39.633423404711685 -4 -2 0
120 3 1.9164650761321593 4.59998266695145 39.64108343028619 -3 -2 0
139 3 0.7238506797639551 5.498829146339279 41.77277466487787 -3 -2 0
647 3 3.158462840437295 6.3825424542162335 41.83012937789384 -3 -2 0
671 3 1.9632869498544994 7.247545615214613 39.634825719750324 -3 -2 0
651 3 5.64124580048795 7.233058331821009 41.84140686180226 -3 -2 0
124 2 4.414270579801703 5.482248239760367 39.649015465580355 -3 -2 0
640 3 6.931031490181868 6.311049237353624 39.65678969443154 -3 -2 0
100 3 5.659409715415878 4.602808787010521 41.83538672252343 -3 -2 0
105 3 8.080893133590347 5.495024304978402 41.79475107333793 -3 -2 0
88 3 9.329350404346515 4.605795323644091 39.59503025072063 -3 -2 0
683 3 10.567551027463681 6.393245469491957 41.786098651044824 -4 -2 0
645 3 9.35595058463504 7.189713894317109 39.66252786362845 -3 -2 0
144 3 11.825958125647817 5.485910877565775 39.6128967840415 -4 -2 0
666 3 14.28171357114211 6.316500783162869 39.62382501410213 -4 -2 0
687 3 13.021359863443127 7.219832889960646 41.78195426845965 -4 -2 0
134 3 13.091412523568385 4.636768490879156 41.770451000476456 -4 -2 0
189 3 0.7174125265593163 0.35489034467973823 46.020404868896414 -3 -2 0
168 3 3.2007104473801706 1.1972111682653452 46.02591168250792 -3 -2 0
190 3 0.7363786386822182 2.923159990386691 46.04037624376193 -3 -2 0
115 3 1.9720695466612408 2.045838924502275 43.90862257254019 -3 -2 0
195 3 3.1961947934047377 3.7851243217729427 46.041045410644635 -3 -2 0
174 3 5.639469487743402 2.036897437972728 46.048383654558776 -3 -2 0
94 3 4.408611051123854 2.9013421678919675 43.92140048832213 -3 -2 0
77 3 6.860967861016031 1.1998562598893985 43.91519246155016 -3 -2 0
101 3 6.8620401726744475 3.7556211002683093 43.92208756941052 -3 -2 0
93 3 4.3946385633415295 0.30840641017007675 43.90946482279177 -3 -2 0
157 3 8.103825792739954 0.30252422590166334 46.06576922770658 -3 -2 0
158 3 8.091414706142185 2.894541912109909 46.05358876426852 -3 -2 0
83 3 9.312318267183004 2.008836175515005 43.93660132154423 -3 -2 0
215 3 10.550015659976625 3.7683756407605076 46.04736368589813 -4 -2 0
202 3 10.54157858898169 1.1720339953483172 46.0480815367234 -4 -2 0
208 3 13.021605676254389 2.0526654080437035 46.04278959285027 -4 -2 0
128 3 11.815207031037417 2.87986402326982 43.953060567924226 -4 -2 0
109 3 14.280828808919741 1.2270851720071336 43.907122515298795 -4 -2 0
135 3 14.278080449329376 3.767816163646435 43.91082112986122 -4 -2 0
127 3 11.772520993997441 0.310253421988931 43.91622162920487 -4 -2 0
212 3 0.7598650607724768 5.4908304150174585 46.035356587037015 -3 -2 0
721 3 3.1993391166627068 6.371173031922081 46.03669891996739 -3 -2 0
116 3 1.9610512240365239 4.631629078823625 43.9127745056768 -3 -2 0
668 3 1.9617666593636462 7.240321533831275 43.90299058099756 -3 -2 0
639 3 6.8639983717489805 6.369328065729916 43.92893591195522 -3 -2 0
122 3 4.413525820984685 5.502476890097234 43.92295278271036 -3 -2 0
175 3 5.644213214610128 4.638649988238464 46.046548933886 -3 -2 0
727 3 5.645664672679404 7.237631117084621 46.04667479724257 -3 -2 0
642 3 9.322483709498119 7.232408748404146 43.92187455476561 -3 -2 0
178 3 8.093549523112973 5.498610607239714 46.04606558659458 -3 -2 0
757 3 10.505221760541964 6.354668037268685 46.04503993466864 -4 -2 0
84 3 9.300301420246548 4.6365117363688135 43.95281454358726 -3 -2 0
665 3 14.295128149643238 6.354203006590963 43.85875650894225 -4 -2 0
142 3 11.796490005365776 5.496691678940569 43.90711934869453 -4 -2 0
209 3 13.030828281698218 4.591175908662291 46.04340371739921 -4 -2 0
763 2 13.036457172035622 7.235424726604542 46.04060832146479 -4 -2 0
191 3 1.9631837346101362 2.105877352383465 48.165832998975915 -3 -2 0
164 3 3.202231760251203 1.1888075823347966 50.30895513404107 -3 -2 0
186 3 0.7263915384767374 2.928354175118601 50.27829334045492 -3 -2 0
193 3 3.1894073186802454 3.786598251092132 50.28757542668521 -3 -2 0
185 3 0.7062372693891857 0.32281807394974465 50.33247064021121 -3 -2 0
169 3 4.469416469690611 0.31103054143660464 48.17377186347485 -3 -2 0
152 3 6.867389527780073 1.1638050506564779 48.176393270422025 -3 -2 0
170 3 4.423088588886235 2.916060098069764 48.168630237786 -3 -2 0
171 3 5.638279736393149 2.0408036506255076 50.292583468350564 -3 -2 0
176 3 6.865913611894198 3.771840811968482 48.172676291153714 -3 -2 0
153 3 8.08729230173515 0.29105239929948723 50.27616700173982 -3 -2 0
159 3 9.31447607167723 2.0351069025573914 48.166051252138935 -3 -2 0
198 3 10.532744180155639 1.1906872230057002 50.228010515032544 -4 -2 0
154 3 8.087865165588031 2.903760757836192 50.287407900834964 -3 -2 0
213 3 10.55531718626347 3.7795048950924004 50.27952063855508 -4 -2 0
203 3 11.786048298652169 0.31036740440907035 48.16084938355172 -4 -2 0
204 3 11.786060069503057 2.915903014525797 48.16326308600375 -4 -2 0
184 3 14.247230079474058 1.2126353441913644 48.16906080619574 -4 -2 0
205 3 13.04395833107681 2.0756794353297217 50.25647648047783 -4 -2 0
210 3 14.266072191221884 3.7882351665326293 48.166419060387554 -4 -2 0
743 3 1.9736504537270403 7.243168371747049 48.1645478063753 -3 -2 0
192 3 1.969830520854215 4.650114167302431 48.16326023203445 -3 -2 0
211 3 0.729411775926377 5.521892071174354 50.28374699958168 -3 -2 0
719 3 3.1913323759885017 6.384542766414417 50.28279100185452 -3 -2 0
712 3 6.871826960333459 6.367365297873012 48.166431598492764 -3 -2 0
196 3 4.425996623607826 5.508632503777165 48.16664581668303 -3 -2 0
172 3 5.641416621820095 4.642647711603438 50.29134901845721 -3 -2 0
723 3 5.640516076740862 7.237332205005396 50.284088257195535 -3 -2 0
717 3 9.320296004093484 7.228654303991821 48.16755634076137 -3 -2 0
755 3 10.555873473124821 6.365550175967589 50.2862156032217 -4 -2 0
177 3 8.092320694501307 5.503224727346202 50.28713257544146 -3 -2 0
160 3 9.321318169006885 4.632066605973495 48.17269772208946 -3 -2 0
759 3 13.036722756461119 7.239188879451488 50.29297947479192 -4 -2 0