LAMMPS (22 Dec 2022)
OMP_NUM_THREADS environment is not set. Defaulting to 1 thread. (../comm.cpp:98)
  using 1 OpenMP thread(s) per MPI task
# general variables
variable	temperature equal 1200
variable	nsteps_run equal 1000000

# general settings
units		metal
dimension 3
boundary	p p p

#processors      3 3 3
atom_style	atomic

# ------------------- ATOM DEFINE ------------------------------

variable        latparam equal 3.01685999999993             #variable

variable        xl equal 0
variable        xh equal 3
variable        yl equal 0
variable        yh equal 3
variable        zl equal 0
variable        zh equal 16

lattice         bcc ${latparam} orient x 1 1 -2 orient y 1 1 1 orient z 1 -1 0
lattice         bcc 3.01685999999993 orient x 1 1 -2 orient y 1 1 1 orient z 1 -1 0
Lattice spacing in x,y,z = 4.9265118 5.2253548 4.2664843
region          mybox block ${xl} ${xh} ${yl} ${yh} ${zl} ${zh}
region          mybox block 0 ${xh} ${yl} ${yh} ${zl} ${zh}
region          mybox block 0 3 ${yl} ${yh} ${zl} ${zh}
region          mybox block 0 3 0 ${yh} ${zl} ${zh}
region          mybox block 0 3 0 3 ${zl} ${zh}
region          mybox block 0 3 0 3 0 ${zh}
region          mybox block 0 3 0 3 0 16

create_box      5 mybox
Created orthogonal box = (0 0 0) to (14.779535 15.676064 68.263749)
  1 by 2 by 8 MPI processor grid

mass 1 180.948
mass 2 92.9064
mass 3 50.9415
mass 4 95.94
mass 5 183.84

create_atoms 3 box
Created 1152 atoms
  using lattice units in orthogonal box = (0 0 0) to (14.779535 15.676064 68.263749)
  create_atoms CPU = 0.014 seconds
set type 3 type/ratio 2 0.05 384
Setting atom values ...
  57 settings made for type/ratio

# ----------------------- FORCE FIELDS -----------------------
pair_style mlip mlip.ini
pair_coeff * *

# ------------------------- SETTINGS --------------------------
timestep 0.001
delete_atoms overlap 2 all all
System init for delete_atoms ...
Neighbor list info ...
  update: every = 1 steps, delay = 0 steps, check = yes
  max neighbors/atom: 2000, page size: 100000
  master list distance cutoff = 6.8
  ghost atom cutoff = 6.8
  binsize = 3.4, bins = 5 5 21
  2 neighbor lists, perpetual/occasional/extra = 1 1 0
  (1) command delete_atoms, occasional, copy from (2)
      attributes: full, newton on
      pair build: copy
      stencil: none
      bin: none
  (2) pair mlip, perpetual
      attributes: full, newton on
      pair build: full/bin/atomonly
      stencil: full/bin/3d
      bin: standard
Deleted 0 atoms, new total = 1152
velocity all create ${temperature} 4928459 rot yes dist gaussian
velocity all create 1200 4928459 rot yes dist gaussian

fix 1 all atom/swap 1 1 114514 ${temperature} types 3 2
fix 1 all atom/swap 1 1 114514 1200 types 3 2
fix temp all npt temp ${temperature} ${temperature} 0.1 iso 0 0 0.1
fix temp all npt temp 1200 ${temperature} 0.1 iso 0 0 0.1
fix temp all npt temp 1200 1200 0.1 iso 0 0 0.1
thermo 1000
thermo_style custom step pe ke etotal time cpu tpcpu

dump 1 all custom 20000 dump.* id type x y z
run ${nsteps_run}
run 1000000
Neighbor list info ...
  update: every = 1 steps, delay = 0 steps, check = yes
  max neighbors/atom: 2000, page size: 100000
  master list distance cutoff = 6.8
  ghost atom cutoff = 6.8
  binsize = 3.4, bins = 5 5 21
  1 neighbor lists, perpetual/occasional/extra = 1 0 0
  (1) pair mlip, perpetual
      attributes: full, newton on
      pair build: full/bin/atomonly
      stencil: full/bin/3d
      bin: standard
Per MPI rank memory allocation (min/avg/max) = 4.351 | 4.354 | 4.355 Mbytes
   Step         PotEng         KinEng         TotEng          Time           CPU           T/CPU     
         0  -10499.523      178.53411     -10320.989      0              0              0            
      1000  -10312.457      172.81191     -10139.645      1              120.25003      0.0083160065 
      2000  -10309.59       177.16773     -10132.422      2              242.24455      0.0081970893 
      3000  -10308.652      177.77788     -10130.874      3              364.58497      0.0081739136 
      4000  -10316.137      183.08865     -10133.049      4              485.53748      0.0082677073 
      5000  -10307.488      171.0171      -10136.471      5              606.7493       0.0082500207 
      6000  -10311.81       180.24925     -10131.561      6              729.0923       0.008173741  
      7000  -10316.185      171.74011     -10144.445      7              849.77198      0.008286399  
      8000  -10309.012      181.95688     -10127.055      8              969.0161       0.008386158  
      9000  -10310.545      171.97483     -10138.57       9              1088.0069      0.0084040112 
     10000  -10308.794      178.51826     -10130.276      10             1205.9992      0.0084751271 
     11000  -10310.464      175.11279     -10135.351      11             1324.3016      0.0084529185 
     12000  -10314.745      182.78546     -10131.959      12             1442.1564      0.0084850144 
     13000  -10310.057      182.35031     -10127.707      13             1560.1765      0.0084731305 
     14000  -10316.148      173.17807     -10142.97       14             1676.9568      0.0085630875 
     15000  -10302.615      175.6915      -10126.923      15             1794.5596      0.0085031998 
     16000  -10305.938      178.51417     -10127.424      16             1911.1767      0.0085750716 
     17000  -10317.988      173.55008     -10144.437      17             2028.6736      0.0085108632 
     18000  -10312.653      180.30556     -10132.348      18             2144.4887      0.0086344538 
     19000  -10303.145      181.28984     -10121.855      19             2260.4783      0.0086214607 
     20000  -10315.255      180.58909     -10134.666      20             2376.7262      0.0086023099 
     21000  -10299.139      177.64093     -10121.498      21             2492.6471      0.0086265708 
     22000  -10318.767      182.52698     -10136.24       22             2609.2061      0.0085793438 
     23000  -10315.566      177.29753     -10138.268      23             2726.3788      0.0085344164 
     24000  -10304.326      180.6232      -10123.703      24             2842.3669      0.0086215737 
     25000  -10310.891      174.76323     -10136.128      25             2958.3179      0.0086243268 
     26000  -10309.482      187.42035     -10122.062      26             3074.0321      0.0086419857 
     27000  -10309.028      170.76107     -10138.267      27             3191.1569      0.0085378982 
     28000  -10304.812      177.77291     -10127.039      28             3307.3366      0.0086073549 
     29000  -10308.16       175.78987     -10132.37       29             3423.8198      0.00858493   
     30000  -10305.852      175.55971     -10130.292      30             3539.2986      0.0086596011 
     31000  -10318.196      176.63594     -10141.56       31             3654.6153      0.0086717732 
     32000  -10310.7        180.64476     -10130.055      32             3771.6801      0.0085422723 
     33000  -10319.797      176.26464     -10143.532      33             3887.3677      0.0086439689 
     34000  -10310.714      181.45815     -10129.256      34             4004.9044      0.008507986  
     35000  -10313.351      173.5802      -10139.771      35             4120.6496      0.0086396607 
     36000  -10309.967      175.83112     -10134.136      36             4236.6757      0.0086187511 
     37000  -10317.222      178.66466     -10138.557      37             4352.9704      0.0085988441 
     38000  -10312.929      181.91541     -10131.014      38             4469.0768      0.0086127925 
     39000  -10305.499      179.82829     -10125.671      39             4585.332       0.0086017671 
     40000  -10309.368      171.71132     -10137.657      40             4701.1863      0.0086315286 
     41000  -10307.856      173.91112     -10133.945      41             4816.7304      0.0086547032 
     42000  -10317.415      168.57901     -10148.836      42             4932.1133      0.0086668003 
     43000  -10316.219      183.72668     -10132.492      43             5048.2113      0.0086134136 
     44000  -10306.317      171.95036     -10134.367      44             5163.2616      0.0086918439 
     45000  -10308.598      183.88779     -10124.71       45             5278.5588      0.0086732417 
     46000  -10318.045      180.89044     -10137.154      46             5395.0623      0.0085834348 
     47000  -10310.86       186.33889     -10124.521      47             5511.1801      0.0086119419 
     48000  -10306.878      176.04591     -10130.832      48             5628.6287      0.0085143588 
     49000  -10318.089      169.80291     -10148.286      49             5745.9124      0.0085263349 
     50000  -10314.379      181.22826     -10133.15       50             5862.7954      0.0085555685 
     51000  -10310.493      179.1254      -10131.367      51             5979.7379      0.0085512092 
     52000  -10312.291      180.07579     -10132.215      52             6096.1852      0.0085875731 
     53000  -10314.962      178.6557      -10136.307      53             6213.4823      0.0085253629 
     54000  -10307.568      173.13873     -10134.429      54             6329.8972      0.0085899651 
     55000  -10312.389      174.21776     -10138.172      55             6446.2329      0.0085958108 
     56000  -10307.802      184.90608     -10122.896      56             6563.5943      0.0085206935 
     57000  -10308.847      174.55357     -10134.293      57             6682.1286      0.0084363749 
     58000  -10310.403      182.22783     -10128.175      58             6802.6069      0.0083002527 
     59000  -10306.768      180.8723      -10125.896      59             6923.7773      0.0082528376 
     60000  -10315.291      176.96305     -10138.328      60             7043.1299      0.0083785364 
     61000  -10304.929      185.65531     -10119.273      61             7161.4581      0.0084510709 
     62000  -10310.098      170.17464     -10139.924      62             7278.4895      0.008544712  
     63000  -10307.509      177.74511     -10129.764      63             7395.8685      0.0085194149 
     64000  -10314.698      172.07149     -10142.626      64             7511.9685      0.0086132641 
     65000  -10307.907      170.69998     -10137.207      65             7628.5737      0.0085759504 
     66000  -10312.114      177.64976     -10134.464      66             7744.2284      0.0086464245 
     67000  -10308.989      176.04161     -10132.948      67             7860.7136      0.0085847789 
     68000  -10309.449      177.08708     -10132.362      68             7977.3222      0.0085757014 
     69000  -10315.953      171.65692     -10144.296      69             8093.2869      0.0086233085 
     70000  -10308.486      178.56341     -10129.923      70             8209.6536      0.0085935263 
     71000  -10305.95       175.85179     -10130.098      71             8325.038       0.0086666837 
     72000  -10305.316      175.93195     -10129.384      72             8441.2731      0.0086032544 
     73000  -10313.468      177.25306     -10136.215      73             8557.2983      0.0086188128 
     74000  -10300.457      177.51961     -10122.938      74             8673.7511      0.0085871695 
     75000  -10308.916      172.28625     -10136.63       75             8789.261       0.0086572671 
     76000  -10308.941      186.2933      -10122.647      76             8905.3696      0.0086126305 
     77000  -10314.725      177.54278     -10137.182      77             9021.5436      0.0086077774 
     78000  -10309.292      178.19824     -10131.094      78             9137.781       0.0086030828 
     79000  -10311.671      184.66969     -10127.001      79             9253.7734      0.008621257  
     80000  -10308.265      183.42872     -10124.837      80             9369.1086      0.0086703744 
     81000  -10316.173      177.57018     -10138.603      81             9484.6548      0.0086545521 
     82000  -10310.633      178.69196     -10131.941      82             9600.0348      0.0086670076 
     83000  -10317.76       179.16574     -10138.594      83             9715.1936      0.008683663  
     84000  -10311.15       186.27723     -10124.873      84             9831.3875      0.0086063087 
     85000  -10300.541      185.89496     -10114.646      85             9947.6534      0.0086009693 
     86000  -10311.765      179.3548      -10132.41       86             10064.473      0.0085602204 
     87000  -10310.082      181.50393     -10128.578      87             10180.263      0.0086363164 
     88000  -10307.927      180.33653     -10127.59       88             10297.334      0.0085418125 
     89000  -10310.297      179.41275     -10130.884      89             10413.719      0.0085921558 
     90000  -10319.525      175.47593     -10144.049      90             10529.853      0.0086108007 
     91000  -10315.954      184.70004     -10131.254      91             10645.006      0.0086840429 
     92000  -10315.764      171.85198     -10143.912      92             10760.135      0.0086859548 
     93000  -10310.389      176.26317     -10134.126      93             10875.299      0.008683236  
     94000  -10314.466      182.88248     -10131.584      94             10990.789      0.0086587809 
     95000  -10313.206      179.03878     -10134.167      95             11105.675      0.008704294  
     96000  -10308.308      178.53915     -10129.769      96             11220.304      0.0087237485 
     97000  -10314.97       180.4238      -10134.546      97             11334.829      0.0087317205 
     98000  -10318.203      182.3846      -10135.818      98             11450.297      0.0086604139 
     99000  -10310.919      179.47978     -10131.44       99             11566.374      0.0086150032 
    100000  -10312.383      180.13394     -10132.249      100            11683.291      0.00855304   
    101000  -10317.232      174.71263     -10142.519      101            11802.865      0.0083630279 
    102000  -10315.55       184.99114     -10130.559      102            11922.762      0.0083404975 
    103000  -10317.038      177.44784     -10139.59       103            12045.957      0.0081172164 
    104000  -10310.043      178.24703     -10131.796      104            12166.472      0.008297742  
    105000  -10313.85       177.0119      -10136.838      105            12287.432      0.0082671709 
    106000  -10312.834      178.45915     -10134.374      106            12409.886      0.0081663594 
    107000  -10319.548      177.84332     -10141.705      107            12529.607      0.0083527167 
    108000  -10310.403      179.26809     -10131.135      108            12648.916      0.0083816029 
    109000  -10312.167      176.4854      -10135.681      109            12766.86       0.008478631  
    110000  -10309.646      171.60978     -10138.036      110            12884.184      0.0085234038 
    111000  -10303.159      177.82527     -10125.334      111            13001.119      0.0085517497 
    112000  -10311.095      175.4084      -10135.687      112            13117.002      0.0086293527 
    113000  -10311.396      187.35524     -10124.041      113            13233.36       0.0085941824 
    114000  -10320.758      184.97727     -10135.781      114            13349.867      0.008583209  
    115000  -10316.594      182.59019     -10134.003      115            13466.556      0.008569793  
    116000  -10312.528      176.17113     -10136.357      116            13582.902      0.0085949911 
    117000  -10308.241      172.83328     -10135.408      117            13699.014      0.0086124262 
    118000  -10308.729      179.58681     -10129.142      118            13815.37       0.0085943339 
    119000  -10314.869      177.92854     -10136.94       119            13931.426      0.0086164694 
    120000  -10305.605      184.00545     -10121.6        120            14047.398      0.0086228003 
    121000  -10316.059      176.90507     -10139.154      121            14163.716      0.0085971415 
    122000  -10311.542      181.32306     -10130.219      122            14280.554      0.0085588303 
    123000  -10316.426      175.27386     -10141.152      123            14398.441      0.0084827369 
    124000  -10308.222      179.66814     -10128.554      124            14517.127      0.0084255729 
    125000  -10303.263      178.54186     -10124.721      125            14636.692      0.00836367   
    126000  -10307.239      178.9751      -10128.263      126            14757.069      0.0083072395 
    127000  -10311.986      180.02922     -10131.957      127            14877.518      0.0083022635 
    128000  -10312.165      176.16356     -10136.002      128            14998.283      0.0082805443 
    129000  -10303.94       179.77562     -10124.164      129            15116.467      0.0084613404 
    130000  -10316.487      185.54579     -10130.941      130            15234.815      0.0084496407 
    131000  -10302.533      178.19915     -10124.333      131            15351.948      0.0085373123 
    132000  -10311.822      179.78789     -10132.034      132            15469.191      0.0085293282 
    133000  -10316.107      176.86884     -10139.238      133            15585.413      0.0086042132 
    134000  -10313.892      181.12147     -10132.77       134            15701.597      0.0086069966 
    135000  -10305.85       180.75411     -10125.096      135            15818.359      0.0085645032 
    136000  -10311.009      174.78592     -10136.223      136            15933.906      0.0086544472 
    137000  -10314.351      172.81426     -10141.536      137            16048.829      0.0087015003 
    138000  -10313.631      182.06746     -10131.563      138            16164.013      0.0086817218 
    139000  -10325.491      175.31694     -10150.174      139            16278.78       0.0087133303 
    140000  -10312.901      175.33121     -10137.569      140            16394.709      0.0086259824 
    141000  -10303.368      173.46888     -10129.899      141            16510.963      0.0086018295 
    142000  -10316.681      172.8951      -10143.786      142            16629.047      0.0084685585 
    143000  -10310.637      180.3695      -10130.268      143            16745.887      0.0085587184 
    144000  -10313.665      174.85368     -10138.811      144            16861.818      0.0086257819 
    145000  -10314.385      177.59959     -10136.786      145            16978.488      0.0085712171 
    146000  -10318.891      180.74881     -10138.143      146            17094.553      0.0086158325 
    147000  -10310.705      180.32844     -10130.377      147            17211.214      0.0085718498 
    148000  -10303.148      178.34507     -10124.803      148            17328.393      0.0085339945 
    149000  -10312.069      179.22194     -10132.847      149            17447.344      0.0084068335 
    150000  -10313.609      174.53364     -10139.075      150            17567.864      0.0082973312 
    151000  -10309.64       168.82406     -10140.816      151            17686.59       0.0084227949 
    152000  -10314.028      186.22177     -10127.806      152            17805.444      0.0084136446 
    153000  -10322.212      174.67701     -10147.535      153            17921.855      0.0085902923 
    154000  -10315.175      176.90567     -10138.269      154            18039.933      0.0084689542 
    155000  -10312.159      179.00979     -10133.149      155            18158.055      0.0084658484 
    156000  -10308.856      183.66608     -10125.19       156            18273.828      0.008637605  
    157000  -10320.298      183.51875     -10136.779      157            18390.127      0.0085984714 
    158000  -10315.645      181.86347     -10133.781      158            18505.801      0.0086449829 
    159000  -10312.879      184.03011     -10128.849      159            18621.319      0.0086566575 
    160000  -10319.621      170.14455     -10149.476      160            18736.254      0.0087005651 
    161000  -10314.489      176.11182     -10138.377      161            18851.717      0.0086608306 
    162000  -10316.762      187.61627     -10129.145      162            18966.289      0.0087281374 
    163000  -10311.861      183.86764     -10127.993      163            19080.756      0.0087361445 
    164000  -10309.289      176.56869     -10132.721      164            19196.856      0.0086132328 
    165000  -10307.389      180.00143     -10127.388      165            19312.256      0.0086655511 
    166000  -10309.297      174.46315     -10134.834      166            19427.862      0.0086500322 
    167000  -10308.061      183.93876     -10124.122      167            19542.656      0.0087113001 
    168000  -10314.939      184.29411     -10130.645      168            19656.993      0.0087460554 
    169000  -10309.665      172.0258      -10137.639      169            19772.874      0.0086295168 
    170000  -10313.177      177.2329      -10135.944      170            19888.581      0.0086425652 
    171000  -10303.362      184.80669     -10118.556      171            20004.446      0.0086307302 
    172000  -10313.549      175.72905     -10137.819      172            20120.551      0.0086128302 
    173000  -10313.109      169.74712     -10143.362      173            20235.116      0.0087286649 
    174000  -10310.32       177.76591     -10132.554      174            20350.381      0.0086756669 
    175000  -10315.605      181.17906     -10134.426      175            20467.013      0.008574013  
    176000  -10314.74       174.05153     -10140.689      176            20583.485      0.0085857484 
    177000  -10312.61       181.03993     -10131.57       177            20698.903      0.0086641459 
    178000  -10314.637      176.23192     -10138.405      178            20813.927      0.0086938217 
    179000  -10311.346      182.205       -10129.141      179            20928.608      0.0087198522 
    180000  -10313.696      179.38968     -10134.307      180            21044.387      0.0086371781 
    181000  -10309.18       184.98197     -10124.198      181            21160.859      0.0085857131 
    182000  -10312.016      174.34985     -10137.667      182            21276.7        0.0086325418 
    183000  -10310.335      185.96193     -10124.373      183            21391.023      0.0087471538 
    184000  -10302.588      182.03575     -10120.552      184            21505.427      0.0087409863 
    185000  -10318.877      176.81683     -10142.06       185            21621.395      0.0086230073 
    186000  -10308.997      175.40589     -10133.592      186            21737.035      0.0086475527 
    187000  -10315.757      178.43904     -10137.318      187            21853.403      0.0085934541 
    188000  -10301.488      177.89095     -10123.597      188            21968.659      0.0086762783 
    189000  -10312.808      171.75146     -10141.056      189            22082.83       0.0087588263 
    190000  -10307.645      175.12699     -10132.518      190            22197.106      0.008750764  
    191000  -10312.115      176.11042     -10136.005      191            22311.93       0.0087089271 
    192000  -10299.641      176.46157     -10123.179      192            22428.086      0.0086091674 
    193000  -10318.011      177.2444      -10140.766      193            22544.282      0.0086061585 
    194000  -10306.667      172.80673     -10133.86       194            22659.537      0.0086763578 
    195000  -10308.782      180.79218     -10127.99       195            22774.542      0.0086952935 
    196000  -10308.289      181.29512     -10126.994      196            22889.069      0.0087315886 
    197000  -10306.133      176.51989     -10129.613      197            23004.665      0.0086507772 
    198000  -10315.952      169.85975     -10146.092      198            23120.523      0.0086312647 
    199000  -10311.964      181.77466     -10130.19       199            23235.547      0.0086938389 
    200000  -10319.936      176.10214     -10143.834      200            23351.311      0.0086382555 
    201000  -10312.091      180.92563     -10131.165      201            23466.524      0.0086795912 
    202000  -10316.899      181.11579     -10135.783      202            23581.971      0.0086619945 
    203000  -10316.506      182.56475     -10133.942      203            23696.4        0.008739023  
    204000  -10309.476      179.70204     -10129.774      204            23810.687      0.0087498813 
    205000  -10314.513      182.46174     -10132.051      205            23926.687      0.0086207544 
    206000  -10307.903      175.10042     -10132.803      206            24042.326      0.0086475426 
    207000  -10320.191      180.51021     -10139.681      207            24159.259      0.0085519547 
    208000  -10310.551      178.84405     -10131.707      208            24274.652      0.0086659791 
    209000  -10313.84       174.01604     -10139.824      209            24390.561      0.0086274934 
    210000  -10306.001      171.8731      -10134.128      210            24508.056      0.0085109806 
    211000  -10309.657      188.19043     -10121.466      211            24624.759      0.0085687755 
    212000  -10313.487      178.08986     -10135.397      212            24743.401      0.0084287452 
    213000  -10313.68       188.44574     -10125.234      213            24862.929      0.0083661837 
    214000  -10320.195      180.76752     -10139.427      214            24982.056      0.0083944635 
    215000  -10314.857      179.09531     -10135.762      215            25101.733      0.008355777  
    216000  -10310.172      179.59009     -10130.582      216            25220.344      0.0084309594 
    217000  -10324.919      169.3801      -10155.539      217            25337.984      0.0085005169 
    218000  -10316.351      181.31613     -10135.035      218            25454.693      0.0085682876 
    219000  -10319.257      178.30795     -10140.949      219            25569.905      0.0086796611 
    220000  -10312.41       182.58637     -10129.824      220            25684.06       0.0087599885 
    221000  -10319.553      166.56369     -10152.989      221            25798.812      0.0087144434 
    222000  -10311.404      179.00418     -10132.4        222            25912.723      0.0087788024 
    223000  -10306.15       176.35029     -10129.799      223            26027.405      0.0087197455 
    224000  -10320.654      178.66892     -10141.985      224            26142.856      0.0086616759 
    225000  -10310.251      181.51281     -10128.738      225            26257.13       0.0087509723 
    226000  -10311.363      176.59598     -10134.767      226            26372.112      0.008696941  
    227000  -10308.693      182.69342     -10125.999      227            26486.833      0.0087168663 
    228000  -10312.444      184.41408     -10128.03       228            26601.74       0.0087026567 
    229000  -10317.242      182.20212     -10135.04       229            26716.298      0.0087291996 
    230000  -10308.577      179.7861      -10128.791      230            26830.673      0.0087431637 
    231000  -10316.1        174.2183      -10141.882      231            26945.222      0.0087298618 
    232000  -10306.247      174.14616     -10132.101      232            27059.509      0.008749954  
    233000  -10314.778      169.90328     -10144.875      233            27174.085      0.008727844  
    234000  -10309.922      185.22203     -10124.7        234            27288.601      0.0087323932 
    235000  -10309.906      176.72924     -10133.177      235            27403.13       0.0087313999 
    236000  -10307.778      183.363       -10124.415      236            27518.55       0.0086639815 
    237000  -10315.945      177.36821     -10138.577      237            27633.596      0.0086922025 
    238000  -10302.636      174.01123     -10128.624      238            27749.108      0.0086570915 
    239000  -10313.622      177.07781     -10136.545      239            27865.49       0.0085923908 
    240000  -10315.455      181.76016     -10133.695      240            27981.136      0.0086471305 
    241000  -10306.804      188.61086     -10118.193      241            28096.881      0.0086396716 
    242000  -10310.421      177.08417     -10133.337      242            28212.811      0.0086259039 
    243000  -10314.928      178.09697     -10136.831      243            28329.086      0.0086002416 
    244000  -10310.162      169.66799     -10140.494      244            28444.68       0.0086510327 
    245000  -10309.652      174.94892     -10134.703      245            28559.963      0.0086742857 
    246000  -10306.02       184.70529     -10121.314      246            28675.624      0.0086459612 
    247000  -10311.2        175.2552      -10135.945      247            28791.778      0.0086092466 
    248000  -10303.231      181.03197     -10122.199      248            28907.205      0.0086634761 
    249000  -10313.952      179.42113     -10134.531      249            29023.375      0.0086080984 
    250000  -10307.62       175.89967     -10131.72       250            29137.529      0.0087600972 
    251000  -10321.157      175.9502      -10145.207      251            29252.309      0.0087122568 
    252000  -10314.286      186.53038     -10127.756      252            29366.151      0.0087841336 
    253000  -10313.453      179.39219     -10134.061      253            29481.045      0.0087036659 
    254000  -10317.687      176.38889     -10141.298      254            29596.992      0.0086246128 
    255000  -10313.994      181.04244     -10132.952      255            29713.367      0.0085929411 
    256000  -10308.601      187.65083     -10120.951      256            29829.048      0.0086444616 
    257000  -10314.619      174.09119     -10140.528      257            29947.452      0.0084456597 
    258000  -10306.734      174.07408     -10132.66       258            30067.529      0.0083279858 
    259000  -10315.548      176.46982     -10139.078      259            30185.79       0.0084558947 
    260000  -10311.752      181.67308     -10130.079      260            30301.179      0.0086663298 
    261000  -10316.302      175.76968     -10140.532      261            30415.788      0.0087253406 
    262000  -10315.01       178.40053     -10136.609      262            30530.417      0.008723776  
    263000  -10310.164      178.7089      -10131.455      263            30644.939      0.0087319573 
    264000  -10312.539      180.04677     -10132.492      264            30759.823      0.0087043867 
    265000  -10311.857      175.385       -10136.472      265            30875.093      0.0086753011 
    266000  -10318.689      183.94239     -10134.747      266            30991.852      0.0085646307 
    267000  -10306.929      184.75732     -10122.172      267            31107.231      0.0086671142 
    268000  -10315.186      175.12942     -10140.057      268            31223.823      0.0085769503 
    269000  -10312.338      180.5331      -10131.805      269            31343.396      0.0083630614 
    270000  -10318.27       181.16406     -10137.106      270            31463.087      0.0083548411 
    271000  -10313.702      185.20449     -10128.498      271            31580.471      0.0085190325 
    272000  -10313.095      172.91281     -10140.183      272            31695.461      0.0086964728 
    273000  -10306.105      177.7081      -10128.397      273            31811.281      0.0086340845 
    274000  -10314.436      177.53805     -10136.897      274            31926.507      0.0086785566 
    275000  -10316.43       179.58234     -10136.848      275            32043.698      0.0085331188 
    276000  -10308.444      188.51279     -10119.932      276            32159.287      0.0086513114 
    277000  -10309.253      175.46888     -10133.784      277            32275.808      0.0085821742 
    278000  -10317.477      186.69249     -10130.784      278            32390.871      0.0086908531 
    279000  -10302.822      173.49971     -10129.322      279            32506.225      0.0086689915 
    280000  -10312.439      175.90142     -10136.537      280            32621.527      0.0086728653 
    281000  -10317.082      183.53527     -10133.547      281            32736.347      0.0087092631 
    282000  -10318.038      182.83412     -10135.204      282            32851.678      0.0086707394 
    283000  -10312.996      185.58781     -10127.409      283            32967.036      0.0086686372 
    284000  -10310.156      178.16198     -10131.994      284            33082.584      0.0086543771 
    285000  -10312.955      175.33369     -10137.621      285            33198.333      0.0086394388 
    286000  -10310.35       176.40639     -10133.943      286            33313.335      0.0086954689 
    287000  -10313.871      180.10947     -10133.762      287            33428.235      0.0087031926 
    288000  -10308.672      170.36546     -10138.307      288            33544.893      0.0085721283 
    289000  -10312.977      173.53297     -10139.444      289            33663.994      0.0083961816 
    290000  -10312.187      169.90542     -10142.282      290            33783.974      0.0083347332 
    291000  -10302.119      174.7895      -10127.329      291            33905.757      0.0082113562 
    292000  -10322.505      175.24665     -10147.258      292            34026.16       0.0083054321 
    293000  -10305.16       169.81761     -10135.342      293            34145.458      0.0083823658 
    294000  -10307.407      186.10859     -10121.298      294            34262.091      0.0085738974 
    295000  -10308.745      182.17287     -10126.572      295            34378.427      0.0085957912 
    296000  -10308.111      173.21312     -10134.898      296            34493.12       0.0087189503 
    297000  -10303.288      172.27917     -10131.009      297            34608.412      0.008673618  
    298000  -10316.042      176.32081     -10139.722      298            34723.913      0.0086579008 
    299000  -10308.142      175.17039     -10132.972      299            34839.317      0.008665249  
    300000  -10312.537      177.12979     -10135.407      300            34956.056      0.0085661266 
    301000  -10311.596      176.9903      -10134.605      301            35072.161      0.0086128606 
    302000  -10315.098      180.7706      -10134.328      302            35187.726      0.0086531708 
    303000  -10314.622      182.8497      -10131.772      303            35303.601      0.0086299319 
    304000  -10313.315      172.58737     -10140.728      304            35418.608      0.0086951449 
    305000  -10306.705      179.72806     -10126.977      305            35534.186      0.0086522075 
    306000  -10309.514      174.7071      -10134.807      306            35650.72       0.0085811609 
    307000  -10309.946      182.94808     -10126.998      307            35770.3        0.0083625846 
    308000  -10315.264      181.81925     -10133.445      308            35891.355      0.0082606902 
    309000  -10311.03       171.15994     -10139.87       309            36009.299      0.008478625  
    310000  -10314.47       180.47885     -10133.991      310            36125.282      0.0086219478 
    311000  -10315.376      175.70841     -10139.667      311            36241.312      0.0086185006 
    312000  -10308.197      175.57366     -10132.623      312            36356.991      0.0086446048 
    313000  -10304.793      176.73591     -10128.057      313            36473.152      0.0086087391 
    314000  -10312.667      172.4233      -10140.244      314            36590.103      0.0085505964 
    315000  -10306.645      180.96208     -10125.683      315            36706.3        0.0086060239 
    316000  -10315.359      182.45574     -10132.903      316            36822.553      0.0086019368 
    317000  -10313.795      173.35786     -10140.437      317            36937.568      0.0086945359 
    318000  -10313.528      176.01968     -10137.508      318            37052.828      0.0086760365 
    319000  -10316.275      181.55254     -10134.722      319            37169.887      0.0085426919 
    320000  -10314.473      174.01501     -10140.458      320            37288.913      0.0084015345 
    321000  -10305.254      181.23586     -10124.018      321            37409.239      0.0083107894 
    322000  -10304.19       169.39361     -10134.796      322            37530.001      0.0082807057 
    323000  -10306.125      172.94285     -10133.182      323            37647.261      0.0085280995 
    324000  -10312.211      181.89947     -10130.312      324            37763.514      0.0086019179 
    325000  -10311.492      173.15728     -10138.335      325            37878.8        0.0086740418 
    326000  -10303.183      178.28365     -10124.899      326            37994.921      0.0086117049 
    327000  -10316.776      176.02376     -10140.752      327            38109.953      0.0086932564 
    328000  -10310.145      180.18608     -10129.959      328            38225.758      0.0086351891 
    329000  -10303.718      178.51372     -10125.205      329            38341.024      0.0086755731 
    330000  -10316.152      180.2862      -10135.866      330            38455.714      0.0087191995 
    331000  -10312.225      178.73172     -10133.494      331            38572.071      0.0085942333 
    332000  -10302.832      178.64577     -10124.187      332            38686.829      0.0087139673 
    333000  -10321.686      184.95255     -10136.733      333            38803.617      0.008562511  
    334000  -10309.692      178.35364     -10131.338      334            38920.733      0.008538557  
    335000  -10314.914      179.26834     -10135.645      335            39041.527      0.0082785882 
    336000  -10306.038      170.87328     -10135.165      336            39161.446      0.008338916  
    337000  -10314.735      181.58217     -10133.153      337            39282.214      0.0082803349 
    338000  -10315.28       179.63354     -10135.647      338            39402.134      0.0083389062 
    339000  -10311.145      188.72703     -10122.418      339            39522.298      0.008321973  
    340000  -10313.886      175.28666     -10138.599      340            39643.688      0.0082379299 
    341000  -10307.093      181.89056     -10125.202      341            39766.129      0.0081671764 
    342000  -10300.332      167.87355     -10132.459      342            39885.773      0.0083581254 
    343000  -10314.426      170.40209     -10144.024      343            40007.311      0.0082279196 
    344000  -10308.912      176.36142     -10132.55       344            40125.63       0.0084517146 
    345000  -10316.269      175.02652     -10141.242      345            40244.287      0.0084276092 
    346000  -10308.642      184.94811     -10123.694      346            40363.576      0.0083830105 
    347000  -10309.848      176.33838     -10133.509      347            40480.01       0.0085886061 
    348000  -10316.4        171.13699     -10145.263      348            40596.421      0.0085902163 
    349000  -10312.391      177.39921     -10134.992      349            40712.104      0.0086442817 
    350000  -10308.965      185.12291     -10123.842      350            40828.251      0.0086098453 
    351000  -10313.346      172.45647     -10140.89       351            40944.307      0.0086165019 
    352000  -10301.169      181.9219      -10119.247      352            41059.538      0.0086782275 
    353000  -10317.321      173.6846      -10143.637      353            41174.803      0.0086756223 
    354000  -10306.054      183.64563     -10122.409      354            41290.745      0.0086249996 
    355000  -10315.699      174.03223     -10141.666      355            41406.473      0.0086410138 
    356000  -10309.769      179.08653     -10130.682      356            41521.437      0.0086983376 
    357000  -10311.844      176.0944      -10135.749      357            41638.557      0.0085382826 
    358000  -10310.127      186.84405     -10123.283      358            41755.176      0.0085749308 
    359000  -10315.334      177.9946      -10137.339      359            41872.232      0.0085429269 
    360000  -10313.141      180.46217     -10132.679      360            41988.614      0.0085923261 
    361000  -10314.506      183.71154     -10130.794      361            42107.645      0.0084011892 
    362000  -10321.192      176.00175     -10145.19       362            42227.541      0.0083405715 
    363000  -10304.178      179.60006     -10124.578      363            42346.622      0.0083976521 
    364000  -10304.275      174.15159     -10130.124      364            42466.716      0.0083267846 
    365000  -10315.122      174.69362     -10140.428      365            42587.229      0.0082978541 
    366000  -10303.675      180.70873     -10122.967      366            42705.008      0.008490536  
    367000  -10315.009      171.12822     -10143.881      367            42824.734      0.0083523972 
    368000  -10310.705      174.81846     -10135.886      368            42943.2        0.0084412102 
    369000  -10300.843      184.8223      -10116.021      369            43060.858      0.0084992063 
    370000  -10314.609      174.98585     -10139.623      370            43177.246      0.0085919974 
    371000  -10311.386      180.35805     -10131.028      371            43294.179      0.0085518751 
    372000  -10308.106      179.35708     -10128.748      372            43409.382      0.0086803282 
    373000  -10317.736      177.4238      -10140.312      373            43524.577      0.0086809315 
    374000  -10309.035      182.18705     -10126.848      374            43639.681      0.0086878336 
    375000  -10313.341      180.27354     -10133.067      375            43753.681      0.0087719185 
    376000  -10312.375      185.63044     -10126.744      376            43869.068      0.0086664937 
    377000  -10310.698      178.51001     -10132.188      377            43984.499      0.0086631587 
    378000  -10306.892      175.10851     -10131.783      378            44098.764      0.0087515817 
    379000  -10312.299      177.41798     -10134.881      379            44213.799      0.0086930428 
    380000  -10310.336      189.30053     -10121.036      380            44330.045      0.0086023942 
    381000  -10309.623      180.36888     -10129.254      381            44444.85       0.0087104066 
    382000  -10317.8        177.13499     -10140.665      382            44560.723      0.0086301368 
    383000  -10310.911      173.94756     -10136.963      383            44676.375      0.0086466428 
    384000  -10307.726      173.6618      -10134.064      384            44793.111      0.0085663429 
    385000  -10322.801      187.32052     -10135.48       385            44911.631      0.0084374431 
    386000  -10308.725      172.06923     -10136.656      386            45031.857      0.008317617  
    387000  -10311.503      180.79469     -10130.709      387            45148.251      0.0085915348 
    388000  -10311.481      178.95706     -10132.524      388            45262.909      0.0087215571 
    389000  -10310.274      187.91221     -10122.362      389            45377.63       0.0087168082 
    390000  -10313.514      177.63136     -10135.883      390            45493.151      0.0086564506 
    391000  -10311.84       179.05471     -10132.785      391            45607.091      0.0087765187 
    392000  -10313.808      182.14647     -10131.662      392            45721.673      0.0087273747 
    393000  -10308.875      175.46801     -10133.407      393            45837.723      0.008617027  
    394000  -10309.873      179.57527     -10130.298      394            45953.406      0.0086442677 
    395000  -10309.704      173.20294     -10136.501      395            46066.736      0.0088237887 
    396000  -10314.548      183.55595     -10130.992      396            46180.325      0.0088037138 
    397000  -10311.955      177.97416     -10133.981      397            46294.933      0.0087253745 
    398000  -10317.264      177.73467     -10139.529      398            46409.78       0.0087072346 
    399000  -10313.674      176.93505     -10136.739      399            46526.23       0.0085873763 
    400000  -10316.935      176.15276     -10140.783      400            46640.946      0.0087171724 
    401000  -10311.363      182.38631     -10128.976      401            46755.042      0.0087645346 
    402000  -10306.81       171.01139     -10135.799      402            46871.462      0.0085896024 
    403000  -10316.092      184.42955     -10131.662      403            46990.487      0.0084015918 
    404000  -10303.537      179.07014     -10124.467      404            47111.07       0.0082930851 
    405000  -10310.715      174.79394     -10135.921      405            47231.731      0.0082876244 
    406000  -10313.389      170.27045     -10143.119      406            47350.746      0.0084023057 
    407000  -10307.53       188.26895     -10119.261      407            47468.484      0.0084934749 
    408000  -10313.316      173.18466     -10140.132      408            47585.552      0.0085420457 
    409000  -10315.739      172.95292     -10142.786      409            47701.109      0.008653712  
    410000  -10312.451      177.82415     -10134.627      410            47816.432      0.0086713026 
    411000  -10315.878      174.84505     -10141.033      411            47932.302      0.008630352  
    412000  -10304.566      172.55599     -10132.01       412            48047.883      0.0086519204 
    413000  -10307.827      180.078       -10127.749      413            48163.979      0.0086135707 
    414000  -10318.968      179.80563     -10139.163      414            48279.714      0.0086404342 
    415000  -10302.124      176.13185     -10125.992      415            48395.908      0.0086062955 
    416000  -10321.064      180.77088     -10140.293      416            48511.61       0.0086429114 
    417000  -10309.608      181.85709     -10127.751      417            48627.171      0.0086534479 
    418000  -10311.2        169.73508     -10141.464      418            48743.069      0.0086283068 
    419000  -10312.818      182.26017     -10130.558      419            48858.248      0.0086821133 
    420000  -10309.066      173.8376      -10135.229      420            48973.775      0.0086559633 
    421000  -10310.238      187.83537     -10122.403      421            49088.84       0.0086907834 
    422000  -10314.176      179.11501     -10135.061      422            49203.99       0.0086842836 
    423000  -10310.385      178.66829     -10131.717      423            49318.2        0.0087558298 
    424000  -10317.54       184.17829     -10133.361      424            49433.445      0.0086771714 
    425000  -10309.487      176.6627      -10132.824      425            49547.561      0.0087630109 
    426000  -10307.018      184.80783     -10122.21       426            49661.964      0.008741     
    427000  -10314.663      176.48573     -10138.177      427            49776.237      0.008750957  
    428000  -10321.252      187.98063     -10133.271      428            49890.62       0.0087426063 
    429000  -10302.302      177.68613     -10124.615      429            50006.246      0.0086485503 
    430000  -10307.576      181.91395     -10125.662      430            50120.697      0.0087373797 
    431000  -10320.51       172.10515     -10148.405      431            50234.849      0.0087602587 
    432000  -10308.894      178.06272     -10130.831      432            50349.294      0.0087377633 
    433000  -10313.927      179.50968     -10134.417      433            50463.702      0.0087407054 
    434000  -10310.899      178.21934     -10132.68       434            50579.005      0.0086727726 
    435000  -10317.708      179.36876     -10138.339      435            50693.732      0.0087163092 
    436000  -10310.744      171.6746      -10139.069      436            50808.882      0.0086843939 
    437000  -10308.855      179.51449     -10129.34       437            50923.853      0.0086978409 
    438000  -10308.398      168.36519     -10140.033      438            51039.704      0.008631758  
    439000  -10306.259      183.73491     -10122.524      439            51155.291      0.0086514891 
    440000  -10316.384      181.49391     -10134.89       440            51270.027      0.0087156374 
    441000  -10321.754      174.10121     -10147.653      441            51384.704      0.0087201866 
    442000  -10309.24       180.34112     -10128.899      442            51499.439      0.0087156849 
    443000  -10307.544      177.76651     -10129.778      443            51614.478      0.0086927014 
    444000  -10311.743      178.70331     -10133.04       444            51730.37       0.0086287793 
    445000  -10312.352      177.02328     -10135.329      445            51846.562      0.0086063852 
    446000  -10313.153      175.38769     -10137.765      446            51961.833      0.0086752724 
    447000  -10306.105      182.71339     -10123.392      447            52076.145      0.0087479338 
    448000  -10317.644      180.4302      -10137.214      448            52190.87       0.0087164858 
    449000  -10311.895      189.42694     -10122.468      449            52304.914      0.0087685757 
    450000  -10319.326      171.67053     -10147.655      450            52421.384      0.0085859096 
    451000  -10302.177      173.1484      -10129.029      451            52537.337      0.0086241963 
    452000  -10312.312      173.22747     -10139.084      452            52653.084      0.0086395118 
    453000  -10309.644      181.64453     -10128          453            52769.494      0.0085903179 
    454000  -10317.149      179.39576     -10137.753      454            52884.075      0.0087274438 
    455000  -10310.608      185.49362     -10125.114      455            52999.173      0.0086882437 
    456000  -10312.884      175.01634     -10137.868      456            53113.212      0.0087689883 
    457000  -10300.136      179.76786     -10120.368      457            53227.678      0.0087361942 
    458000  -10309.699      174.17008     -10135.529      458            53342.443      0.0087134158 
    459000  -10316.998      173.12934     -10143.869      459            53456.837      0.0087417211 
    460000  -10301.327      173.09616     -10128.23       460            53571.574      0.0087156228 
    461000  -10308.845      175.3599      -10133.485      461            53686.69       0.0086868606 
    462000  -10311.954      184.02904     -10127.925      462            53803.153      0.0085864159 
    463000  -10312.317      174.01154     -10138.306      463            53920.405      0.0085286357 
    464000  -10317.2        180.07889     -10137.121      464            54038.862      0.0084419191 
    465000  -10307.714      177.30792     -10130.406      465            54158.721      0.0083430908 
    466000  -10307.354      180.77168     -10126.582      466            54277.127      0.0084455555 
    467000  -10312.848      176.11296     -10136.735      467            54395.501      0.008447796  
    468000  -10309.757      172.73515     -10137.022      468            54510.903      0.0086653967 
    469000  -10306.358      178.94042     -10127.418      469            54626.694      0.0086362531 
    470000  -10312.602      173.92688     -10138.675      470            54742.708      0.008619616  
    471000  -10308.446      184.91176     -10123.534      471            54858.244      0.0086552978 
    472000  -10310.373      172.82351     -10137.55       472            54973.347      0.008687918  
    473000  -10310.803      180.63287     -10130.17       473            55088.497      0.008684264  
    474000  -10319.175      176.98518     -10142.19       474            55203.413      0.0087020315 
    475000  -10308.522      183.18261     -10125.339      475            55318.996      0.0086517752 
    476000  -10326.16       178.07737     -10148.082      476            55434.197      0.0086805082 
    477000  -10311.24       179.9366      -10131.303      477            55548.285      0.0087651586 
    478000  -10313.951      178.57628     -10135.375      478            55662.46       0.0087584586 
    479000  -10311.929      173.50264     -10138.426      479            55777.349      0.0087040528 
    480000  -10306.761      180.09319     -10126.667      480            55892.111      0.0087136741 
    481000  -10317.563      178.11605     -10139.447      481            56007.047      0.0087005279 
    482000  -10309.538      185.44155     -10124.097      482            56122.465      0.0086641448 
    483000  -10314.942      180.38948     -10134.552      483            56236.862      0.0087414944 
    484000  -10312.269      181.66431     -10130.604      484            56351.573      0.0087175701 
    485000  -10309.044      182.15947     -10126.884      485            56467.827      0.0086018571 
    486000  -10312.076      182.97963     -10129.096      486            56586.655      0.0084155471 
    487000  -10315.035      177.15204     -10137.883      487            56707.621      0.0082667447 
    488000  -10314.37       174.90963     -10139.46       488            56824.136      0.008582588  
    489000  -10316.864      181.81752     -10135.047      489            56938.973      0.0087080132 
    490000  -10318.41       185.52218     -10132.888      490            57053.979      0.0086951607 
    491000  -10307.07       174.77787     -10132.292      491            57169.463      0.0086592471 
    492000  -10318.176      176.33518     -10141.84       492            57283.893      0.0087389432 
    493000  -10312.65       181.57042     -10131.08       493            57398.105      0.008755653  
    494000  -10315.976      174.7682      -10141.208      494            57513.781      0.0086448392 
    495000  -10312.665      185.32244     -10127.343      495            57629.224      0.008662273  
    496000  -10312.587      176.25677     -10136.33       496            57744.946      0.0086414027 
    497000  -10316.854      179.67451     -10137.18       497            57859.633      0.0087193936 
    498000  -10306.663      173.13669     -10133.526      498            57975.146      0.0086570753 
    499000  -10310.991      181.17666     -10129.815      499            58090.114      0.0086980331 
    500000  -10312.969      172.08116     -10140.888      500            58206.849      0.008566418  
    501000  -10311.45       178.60708     -10132.843      501            58324.414      0.0085059288 
    502000  -10314.232      181.69917     -10132.533      502            58444.934      0.0082973891 
    503000  -10311.42       179.16714     -10132.253      503            58565.492      0.008294757  
    504000  -10320.118      172.85301     -10147.265      504            58684.102      0.0084310124 
    505000  -10314.867      182.28256     -10132.585      505            58800.329      0.0086038469 
    506000  -10310.118      180.764       -10129.354      506            58917.521      0.0085330089 
    507000  -10307.948      173.38537     -10134.563      507            59033.727      0.0086053627 
    508000  -10310.515      168.36691     -10142.148      508            59148.833      0.0086877034 
    509000  -10313.764      182.79999     -10130.964      509            59264.405      0.0086525936 
    510000  -10310.369      172.42491     -10137.944      510            59379.29       0.0087043521 
    511000  -10306.933      179.14896     -10127.784      511            59493.916      0.0087239989 
    512000  -10310.771      169.33965     -10141.431      512            59609.704      0.0086364732 
    513000  -10312.629      184.86823     -10127.76       513            59724.391      0.0087194173 
    514000  -10319.194      178.94611     -10140.248      514            59839.491      0.0086880635 
    515000  -10312.059      180.48787     -10131.571      515            59954.175      0.0087196202 
    516000  -10313.157      172.76801     -10140.389      516            60069.459      0.0086742057 
    517000  -10312.171      181.49144     -10130.68       517            60185.451      0.0086213018 
    518000  -10318.11       184.65037     -10133.459      518            60302.531      0.0085411515 
    519000  -10312.287      175.79572     -10136.491      519            60418.715      0.0086071    
    520000  -10314.272      170.94998     -10143.322      520            60534.231      0.0086567947 
    521000  -10309.048      175.86369     -10133.184      521            60650.685      0.0085870595 
    522000  -10318.021      177.13448     -10140.886      522            60768.076      0.0085185488 
    523000  -10320.643      179.92097     -10140.722      523            60884.026      0.0086244142 
    524000  -10308.149      181.30082     -10126.848      524            61000.564      0.0085808869 
    525000  -10314.492      181.31599     -10133.176      525            61116.269      0.0086426536 
    526000  -10302.538      179.07634     -10123.462      526            61232.136      0.0086306196 
    527000  -10308.356      171.73296     -10136.623      527            61348.729      0.0085768062 
    528000  -10318.78       181.96468     -10136.815      528            61464.407      0.0086446957 
    529000  -10315.169      172.65668     -10142.513      529            61580.225      0.0086342421 
    530000  -10314.993      180.70138     -10134.292      530            61695.822      0.0086507196 
    531000  -10312.077      172.72298     -10139.354      531            61811.207      0.0086666435 
    532000  -10316.519      176.10594     -10140.413      532            61926.918      0.0086422604 
    533000  -10310.386      182.49487     -10127.892      533            62042.272      0.0086689105 
    534000  -10308.304      181.46124     -10126.843      534            62157.686      0.0086644819 
    535000  -10315.1        180.74647     -10134.353      535            62272.617      0.0087009017 
    536000  -10306.325      182.7183      -10123.606      536            62387.807      0.008681278  
    537000  -10316.246      181.87451     -10134.372      537            62502.1        0.0087494608 
    538000  -10316.603      177.85001     -10138.753      538            62617.954      0.0086315829 
    539000  -10311.995      177.57917     -10134.416      539            62732.33       0.0087430493 
    540000  -10303.792      170.93925     -10132.853      540            62847.525      0.0086809702 
    541000  -10311.815      175.39167     -10136.424      541            62962.082      0.0087292828 
    542000  -10309.08       178.60816     -10130.472      542            63076.759      0.0087201332 
    543000  -10317.172      179.75417     -10137.418      543            63193.417      0.0085720772 
    544000  -10303.934      172.9987      -10130.935      544            63308.573      0.0086838449 
    545000  -10308.742      188.21675     -10120.525      545            63423.506      0.0087007001 
    546000  -10311.17       173.7719      -10137.398      546            63539.729      0.0086041902 
    547000  -10308.405      182.58108     -10125.824      547            63654.681      0.0086992853 
    548000  -10311.09       173.02297     -10138.067      548            63769.922      0.0086774659 
    549000  -10310.907      179.98007     -10130.927      549            63884.645      0.0087166526 
    550000  -10319.471      181.67598     -10137.795      550            63998.666      0.0087702536 
    551000  -10311.015      175.28009     -10135.735      551            64113.777      0.0086873008 
    552000  -10311.386      184.42411     -10126.962      552            64229.273      0.0086582811 
    553000  -10318.908      181.16994     -10137.738      553            64345.165      0.0086287267 
    554000  -10311.129      179.49873     -10131.63       554            64460.43       0.0086756571 
    555000  -10308.228      169.44222     -10138.786      555            64574.491      0.0087672696 
    556000  -10302.027      181.68129     -10120.346      556            64688.754      0.0087517579 
    557000  -10316.07       179.66008     -10136.41       557            64804.09       0.0086702726 
    558000  -10312.098      175.6705      -10136.427      558            64919.53       0.0086625051 
    559000  -10310.625      182.55958     -10128.065      559            65035.666      0.00861064   
    560000  -10318.127      179.51145     -10138.615      560            65149.921      0.0087523408 
    561000  -10310.652      177.27817     -10133.374      561            65264.825      0.0087029008 
    562000  -10316.163      180.82369     -10135.34       562            65380.307      0.0086593432 
    563000  -10312.613      185.15106     -10127.462      563            65497.223      0.0085531334 
    564000  -10305.69       181.89531     -10123.795      564            65613.016      0.008636147  
    565000  -10318.934      180.22552     -10138.709      565            65726.908      0.0087802575 
    566000  -10307.721      172.87218     -10134.849      566            65841.563      0.0087218047 
    567000  -10308.892      181.11623     -10127.776      567            65957.686      0.0086115359 
    568000  -10312.96       177.63361     -10135.326      568            66073.158      0.0086601179 
    569000  -10308.249      182.80391     -10125.445      569            66189.463      0.0085980617 
    570000  -10306.311      176.33623     -10129.975      570            66303.765      0.008748767  
    571000  -10315.851      179.34519     -10136.506      571            66418.436      0.0087206255 
    572000  -10308.945      182.73267     -10126.212      572            66534.323      0.008629105  
    573000  -10318.016      186.56417     -10131.451      573            66651.045      0.0085673291 
    574000  -10311.286      179.695       -10131.591      574            66767.75       0.0085686645 
    575000  -10302.657      180.11347     -10122.544      575            66882.17       0.0087396818 
    576000  -10314.282      178.10299     -10136.179      576            66996.58       0.0087405369 
    577000  -10307.258      182.95254     -10124.305      577            67111.501      0.0087015677 
    578000  -10315.341      176.17833     -10139.162      578            67226.02       0.0087321737 
    579000  -10306.587      192.65634     -10113.93       579            67341.265      0.0086771834 
    580000  -10318.211      183.26539     -10134.946      580            67458.765      0.0085106282 
    581000  -10300.805      178.61652     -10122.189      581            67578.207      0.0083723199 
    582000  -10315.185      179.73016     -10135.455      582            67697.394      0.0083901406 
    583000  -10309.679      181.14967     -10128.529      583            67816.464      0.0083984017 
    584000  -10309.167      172.80938     -10136.357      584            67937.913      0.0082339157 
    585000  -10311.657      172.24454     -10139.412      585            68058.103      0.0083201976 
    586000  -10312.744      176.40964     -10136.334      586            68178.856      0.0082813477 
    587000  -10310.314      170.86578     -10139.448      587            68300.314      0.0082332705 
    588000  -10310.626      181.22152     -10129.404      588            68419.523      0.0083886485 
    589000  -10304.929      176.45033     -10128.478      589            68539.005      0.0083694826 
    590000  -10307.555      179.87316     -10127.682      590            68657.618      0.0084307672 
    591000  -10312.429      177.6416      -10134.787      591            68777.677      0.0083292682 
    592000  -10302.418      183.16178     -10119.256      592            68896.867      0.0083899426 
    593000  -10314.952      178.52943     -10136.423      593            69013.946      0.0085411978 
    594000  -10309.264      178.835       -10130.429      594            69131.201      0.0085284611 
    595000  -10317.179      166.24909     -10150.93       595            69248.805      0.0085031273 
    596000  -10313.399      184.88139     -10128.518      596            69365.825      0.0085455486 
    597000  -10319.096      174.80984     -10144.286      597            69482.013      0.0086067163 
    598000  -10315.261      174.38601     -10140.875      598            69597.216      0.0086803552 
    599000  -10310.659      182.57427     -10128.085      599            69712.396      0.0086820467 
    600000  -10320.301      173.93881     -10146.362      600            69828.931      0.0085810754 
    601000  -10317.697      178.61896     -10139.078      601            69944.441      0.0086572714 
    602000  -10309.011      185.9243      -10123.087      602            70060.326      0.0086292642 
    603000  -10307.159      175.05118     -10132.108      603            70175.588      0.0086758885 
    604000  -10311.084      181.0726      -10130.011      604            70291.21       0.0086488406 
    605000  -10313.822      180.74696     -10133.075      605            70406.732      0.008656424  
    606000  -10311.926      186.58304     -10125.343      606            70522.051      0.008671596  
    607000  -10312.383      175.42436     -10136.958      607            70637.608      0.0086537345 
    608000  -10307.235      183.22668     -10124.008      608            70752.417      0.0087100781 
    609000  -10319.678      181.1731      -10138.505      609            70867.763      0.0086696159 
    610000  -10314.392      184.98987     -10129.402      610            70984.541      0.008563242  
    611000  -10304.523      174.13374     -10130.39       611            71100.362      0.0086339697 
    612000  -10318.142      177.83794     -10140.304      612            71214.999      0.0087232266 
    613000  -10308.196      177.81112     -10130.385      613            71329.73       0.0087160208 
    614000  -10320.133      174.19061     -10145.942      614            71444.302      0.0087281049 
    615000  -10314.729      178.97809     -10135.751      615            71560.394      0.008613902  
    616000  -10310.631      182.37211     -10128.259      616            71675.858      0.008660718  
    617000  -10311.163      180.5156      -10130.647      617            71792.327      0.0085859536 
    618000  -10314.548      172.80245     -10141.745      618            71908.248      0.0086265941 
    619000  -10307.015      178.83659     -10128.178      619            72024.635      0.0085919683 
    620000  -10313.91       170.21241     -10143.698      620            72141.761      0.0085378557 
    621000  -10305.37       175.55955     -10129.811      621            72258.083      0.0085968334 
    622000  -10302.364      175.68846     -10126.675      622            72375.084      0.0085469221 
    623000  -10313.749      178.3705      -10135.379      623            72491.617      0.0085812389 
    624000  -10311.696      176.53398     -10135.162      624            72608.099      0.0085850135 
    625000  -10303.601      179.3547      -10124.246      625            72724.508      0.0085904314 
    626000  -10313.757      177.79972     -10135.958      626            72840.144      0.0086478297 
    627000  -10305.106      179.76965     -10125.337      627            72954.868      0.0087165838 
    628000  -10313.003      178.39337     -10134.61       628            73069.703      0.0087081173 
    629000  -10312.918      185.68492     -10127.233      629            73187.609      0.008481298  
    630000  -10313.109      174.36464     -10138.745      630            73308.611      0.0082643673 
    631000  -10314.985      178.104       -10136.881      631            73429.196      0.0082929261 
    632000  -10308.16       178.69374     -10129.467      632            73549.572      0.0083072434 
    633000  -10320.831      178.32208     -10142.509      633            73667.57       0.0084747738 
    634000  -10316.162      179.3089      -10136.853      634            73783.967      0.008591254  
    635000  -10309.622      180.90544     -10128.717      635            73899.674      0.0086424966 
    636000  -10322.727      181.27753     -10141.449      636            74015.548      0.0086300745 
    637000  -10308.965      182.10122     -10126.864      637            74130.354      0.0087103711 
    638000  -10311.514      180.19205     -10131.322      638            74244.627      0.0087509444 
    639000  -10311.385      184.33903     -10127.046      639            74360.458      0.0086333211 
    640000  -10314.851      182.80975     -10132.041      640            74475.765      0.0086724377 
    641000  -10315.185      180.04808     -10135.136      641            74591.183      0.0086641603 
    642000  -10313.959      184.51847     -10129.441      642            74706.24       0.0086913778 
    643000  -10322.198      181.4122      -10140.786      643            74821.437      0.0086807844 
    644000  -10311.513      178.89724     -10132.616      644            74937.376      0.0086252605 
    645000  -10324.13       181.97918     -10142.151      645            75052.929      0.0086539806 
    646000  -10311.129      184.5598      -10126.57       646            75167.976      0.0086920995 
    647000  -10317.694      182.22014     -10135.474      647            75282.358      0.0087426885 
    648000  -10309.732      176.64373     -10133.088      648            75397.623      0.008675631  
    649000  -10311.255      176.74428     -10134.511      649            75513.593      0.0086229089 
    650000  -10314.995      178.73393     -10136.262      650            75631.103      0.0085098877 
    651000  -10311.92       178.37105     -10133.549      651            75749.225      0.0084658911 
    652000  -10314.979      171.92316     -10143.056      652            75867.024      0.0084889918 
    653000  -10320.369      184.42498     -10135.944      653            75985.846      0.0084159902 
    654000  -10311.455      183.5734      -10127.882      654            76104.748      0.0084102392 
    655000  -10317.97       174.42268     -10143.548      655            76222.931      0.0084614563 
    656000  -10313.887      183.07797     -10130.809      656            76343.159      0.0083175317 
    657000  -10321.31       177.06268     -10144.247      657            76462.495      0.0083797341 
    658000  -10309.868      184.30586     -10125.562      658            76583.204      0.0082843698 
    659000  -10322.317      182.25275     -10140.064      659            76702.407      0.0083890465 
    660000  -10314.135      184.75289     -10129.382      660            76821.993      0.0083621644 
    661000  -10317.47       172.84726     -10144.623      661            76942.777      0.0082792659 
    662000  -10306.074      178.17529     -10127.899      662            77062.741      0.0083358085 
    663000  -10312.414      176.58639     -10135.827      663            77180.224      0.0085118928 
    664000  -10314.213      183.94043     -10130.273      664            77298.206      0.008475866  
    665000  -10317.359      180.21653     -10137.142      665            77414.721      0.0085826021 
    666000  -10314.636      180.66681     -10133.969      666            77530.247      0.0086560273 
    667000  -10315.102      177.77991     -10137.322      667            77646.155      0.0086275594 
    668000  -10307.903      182.15941     -10125.744      668            77761.487      0.0086706329 
    669000  -10320.724      174.89008     -10145.834      669            77876.159      0.0087204762 
    670000  -10307.927      178.46329     -10129.463      670            77990.515      0.0087446431 
    671000  -10310.813      177.56193     -10133.252      671            78106.172      0.0086462867 
    672000  -10313.414      174.58699     -10138.827      672            78222.579      0.0085905046 
    673000  -10307.623      184.7356      -10122.887      673            78338.161      0.0086519005 
    674000  -10310.527      179.04311     -10131.484      674            78452.506      0.0087454801 
    675000  -10320.34       181.22795     -10139.112      675            78566.301      0.008787725  
    676000  -10306.557      183.17797     -10123.379      676            78680.211      0.0087788425 
    677000  -10312.839      172.50391     -10140.335      677            78794.968      0.0087140257 
    678000  -10311.78       179.176       -10132.604      678            78909.887      0.0087018088 
    679000  -10307.762      177.91651     -10129.845      679            79026.067      0.0086073298 
    680000  -10323.039      186.42573     -10136.613      680            79141.614      0.0086545028 
    681000  -10312.215      182.01133     -10130.204      681            79257.209      0.0086508589 
    682000  -10317.828      180.99204     -10136.836      682            79372.339      0.0086858342 
    683000  -10305.986      174.37726     -10131.608      683            79486.706      0.008743832  
    684000  -10317.806      174.04841     -10143.758      684            79600.363      0.0087983605 
    685000  -10309.826      181.83597     -10127.99       685            79714.144      0.0087888527 
    686000  -10313.95       170.94309     -10143.007      686            79828.665      0.0087319898 
    687000  -10312.527      180.09225     -10132.435      687            79942.896      0.0087541835 
    688000  -10316.422      173.16814     -10143.254      688            80057.682      0.0087118931 
    689000  -10312.045      179.35165     -10132.694      689            80173.096      0.0086644343 
    690000  -10316.35       175.80725     -10140.543      690            80289.993      0.0085545623 
    691000  -10311.4        186.23033     -10125.17       691            80406.736      0.0085658248 
    692000  -10320.626      177.08047     -10143.545      692            80523.397      0.0085718416 
    693000  -10305.769      178.3373      -10127.432      693            80639.266      0.0086304506 
    694000  -10314.199      179.0163      -10135.183      694            80755.177      0.0086273265 
    695000  -10301.677      175.96298     -10125.714      695            80871.923      0.0085655643 
    696000  -10315.602      179.68305     -10135.919      696            80988.695      0.0085636674 
    697000  -10305.333      184.04035     -10121.292      697            81103.567      0.0087053755 
    698000  -10309.92       172.7362      -10137.184      698            81219.392      0.0086337043 
    699000  -10303.919      164.90072     -10139.018      699            81334.14       0.0087147863 
    700000  -10315.867      174.08695     -10141.78       700            81450.371      0.0086035258 
    701000  -10309.365      177.55622     -10131.809      701            81565.839      0.0086604338 
    702000  -10318.389      174.52914     -10143.86       702            81681.902      0.0086159614 
    703000  -10299.938      168.86157     -10131.077      703            81797.26       0.0086687314 
    704000  -10315.098      178.20199     -10136.896      704            81912.47       0.0086797989 
    705000  -10313.075      180.88747     -10132.188      705            82028.557      0.0086142231 
    706000  -10315.395      176.72881     -10138.666      706            82144.064      0.0086574466 
    707000  -10314.413      185.81633     -10128.596      707            82261.002      0.0085515241 
    708000  -10307.05       175.01023     -10132.039      708            82376.841      0.0086327033 
    709000  -10315.174      173.58746     -10141.587      709            82491.795      0.0086991239 
    710000  -10319.313      175.61713     -10143.696      710            82607.115      0.0086715389 
    711000  -10311.016      177.67259     -10133.344      711            82721.916      0.0087107324 
    712000  -10307.181      177.08565     -10130.095      712            82838.803      0.0085552214 
    713000  -10308.797      175.0901      -10133.707      713            82955.156      0.0085945321 
    714000  -10306.325      171.23615     -10135.089      714            83070.612      0.0086613602 
    715000  -10309.794      177.5798      -10132.214      715            83185.427      0.0087096131 
    716000  -10314.948      176.74124     -10138.207      716            83300.257      0.0087085942 
    717000  -10313.277      178.61295     -10134.664      717            83416.731      0.0085855917 
    718000  -10302.701      173.60494     -10129.096      718            83531.761      0.0086933344 
    719000  -10303.926      184.21668     -10119.71       719            83646.958      0.0086807942 
    720000  -10311.96       177.8815      -10134.079      720            83762.614      0.0086463524 
    721000  -10313.88       184.04811     -10129.832      721            83878.637      0.0086189734 
    722000  -10320.701      178.74401     -10141.957      722            83994.387      0.0086393347 
    723000  -10308.436      181.93255     -10126.504      723            84110.108      0.0086414411 
    724000  -10314.773      174.20381     -10140.569      724            84224.529      0.0087396806 
    725000  -10309.903      180.51842     -10129.384      725            84339.264      0.0087157543 
    726000  -10316.2        176.33215     -10139.867      726            84455.195      0.0086257823 
    727000  -10309.384      176.01152     -10133.373      727            84570.637      0.008662397  
    728000  -10318.636      175.88866     -10142.747      728            84684.976      0.0087459217 
    729000  -10316.246      188.58248     -10127.663      729            84799.777      0.0087107096 
    730000  -10302.315      182.59046     -10119.724      730            84915.211      0.0086629532 
    731000  -10313.334      182.89265     -10130.441      731            85031.17       0.0086237189 
    732000  -10323.073      172.27988     -10150.793      732            85148.827      0.008499263  
    733000  -10312.454      181.27982     -10131.175      733            85265.465      0.0085735693 
    734000  -10312.955      179.20061     -10133.755      734            85382.993      0.0085085875 
    735000  -10309.09       175.46103     -10133.629      735            85498.825      0.0086331925 
    736000  -10314.557      184.9408      -10129.616      736            85614.448      0.0086488441 
    737000  -10309.124      173.43502     -10135.689      737            85730.468      0.0086191432 
    738000  -10314.423      181.26833     -10133.155      738            85846.202      0.0086405377 
    739000  -10313.594      173.01795     -10140.576      739            85962.202      0.0086207198 
    740000  -10311.116      180.98082     -10130.135      740            86078.015      0.0086345684 
    741000  -10312.7        176.44988     -10136.25       741            86194.368      0.0085945365 
    742000  -10311.888      179.86415     -10132.024      742            86309.611      0.0086773116 
    743000  -10307.796      177.19204     -10130.604      743            86424.824      0.0086795772 
    744000  -10316.161      176.33578     -10139.825      744            86539.864      0.0086926121 
    745000  -10307.393      177.27757     -10130.115      745            86654.833      0.0086979909 
    746000  -10314.579      178.03488     -10136.544      746            86769.05       0.008755316  
    747000  -10298.526      177.55352     -10120.972      747            86883.847      0.0087110165 
[...]
    888000  -10315.364      171.27416     -10144.09       888            103315.44      0.0086076251 
    889000  -10310.569      178.95718     -10131.611      889            103432.38      0.0085515431 
    890000  -10317.856      176.85024     -10141.006      890            103549.14      0.008564712  
    891000  -10308.172      177.06786     -10131.104      891            103665.71      0.0085785407 
    892000  -10312.506      178.51439     -10133.992      892            103782.08      0.0085933222 
    893000  -10313.282      185.03197     -10128.25       893            103898.54      0.0085862222 
    894000  -10312.64       176.97156     -10135.669      894            104014.41      0.0086302596 
    895000  -10307.326      183.62375     -10123.702      895            104129.93      0.0086569095 
    896000  -10314.871      181.76459     -10133.107      896            104247.4       0.0085128208 
    897000  -10315.106      175.61232     -10139.493      897            104367.24      0.0083441144 
    898000  -10306.682      175.2281      -10131.454      898            104487.07      0.0083456333 
    899000  -10314.274      172.21229     -10142.062      899            104604.75      0.008497705  
    900000  -10302.899      176.94257     -10125.956      900            104719.98      0.0086781889 
    901000  -10312.547      175.91757     -10136.63       901            104834.63      0.0087220465 
    902000  -10303.142      180.93063     -10122.212      902            104948.56      0.0087769695 
    903000  -10309.863      170.15862     -10139.704      903            105062.82      0.0087522423 
    904000  -10309.743      185.45074     -10124.292      904            105177.66      0.008707702  
    905000  -10318.866      179.67376     -10139.192      905            105292.41      0.0087146577 
    906000  -10300.496      179.89111     -10120.605      906            105407.74      0.0086704729 
    907000  -10309.378      176.84406     -10132.533      907            105521.61      0.0087819706 
    908000  -10314.243      175.05077     -10139.192      908            105635.57      0.0087752896 
    909000  -10316.064      180.84629     -10135.217      909            105751.78      0.0086053604 
    910000  -10302.841      176.48676     -10126.354      910            105869.02      0.0085294813 
    911000  -10319.206      174.13799     -10145.068      911            105987.72      0.0084246194 
    912000  -10311.083      179.99668     -10131.086      912            106104.91      0.0085327966 
    913000  -10313.575      175.90346     -10137.672      913            106222.09      0.0085339198 
    914000  -10306.037      175.14635     -10130.89       914            106338.78      0.0085699454 
    915000  -10311.992      182.68934     -10129.302      915            106454.96      0.0086070195 
    916000  -10314.358      171.65996     -10142.698      916            106571.34      0.0085923768 
    917000  -10312.914      177.01976     -10135.894      917            106685.7       0.0087444536 
    918000  -10310.619      176.99672     -10133.622      918            106799.96      0.00875195   
    919000  -10315.798      181.68578     -10134.112      919            106914.86      0.0087036942 
    920000  -10310.261      173.77584     -10136.485      920            107030.3       0.0086621831 
    921000  -10309.47       180.18102     -10129.289      921            107144.43      0.0087616316 
    922000  -10314.748      178.94199     -10135.806      922            107258.72      0.0087503841 
    923000  -10312.937      173.48433     -10139.453      923            107373.8       0.0086891136 
    924000  -10317.209      175.88562     -10141.323      924            107489.12      0.0086718692 
    925000  -10309.099      179.32298     -10129.776      925            107604.5       0.0086667026 
    926000  -10308.622      184.19347     -10124.428      926            107718.35      0.0087836802 
    927000  -10318.166      182.35103     -10135.815      927            107832.74      0.0087420243 
    928000  -10309.935      179.83195     -10130.103      928            107948.23      0.008658282  
    929000  -10310.021      172.98554     -10137.035      929            108062.19      0.0087751178 
    930000  -10307.416      185.75902     -10121.656      930            108176.84      0.0087225279 
    931000  -10307.783      178.12452     -10129.658      931            108292.38      0.0086553266 
    932000  -10315.818      168.91519     -10146.903      932            108408.85      0.0085852422 
    933000  -10310.146      182.24175     -10127.905      933            108528.73      0.0083421713 
    934000  -10313.028      174.60772     -10138.421      934            108645.39      0.0085715635 
    935000  -10317.796      177.62833     -10140.167      935            108761.65      0.0086016766 
    936000  -10303.306      176.55417     -10126.752      936            108876.56      0.0087019409 
    937000  -10315.086      180.50014     -10134.586      937            108991.32      0.0087139556 
    938000  -10308.802      191.13469     -10117.667      938            109106.34      0.0086945617 
    939000  -10310.836      184.66031     -10126.176      939            109220.87      0.0087312787 
    940000  -10302.345      175.05983     -10127.285      940            109334.76      0.0087803194 
    941000  -10306.416      173.90836     -10132.508      941            109449.74      0.008697345  
    942000  -10311.36       180.71838     -10130.642      942            109565.69      0.0086242427 
    943000  -10311.962      179.72008     -10132.242      943            109680.54      0.0087067309 
    944000  -10312.903      174.90414     -10137.999      944            109794.88      0.0087463397 
    945000  -10308.128      179.93093     -10128.197      945            109910.47      0.0086512058 
    946000  -10310.532      179.94897     -10130.583      946            110028.84      0.008448019  
    947000  -10314.761      178.18449     -10136.576      947            110149.88      0.0082615406 
    948000  -10313.421      180.80313     -10132.618      948            110267.57      0.0084970289 
    949000  -10307.283      168.0149      -10139.268      949            110383.13      0.0086531866 
    950000  -10308.824      182.04514     -10126.779      950            110498.46      0.0086714263 
    951000  -10316.229      185.22464     -10131.004      951            110614.07      0.0086497744 
    952000  -10310.566      177.51385     -10133.052      952            110729.16      0.0086884847 
    953000  -10309.843      177.31968     -10132.523      953            110843.54      0.0087429311 
    954000  -10322.839      177.33094     -10145.508      954            110958.53      0.0086959641 
    955000  -10311.248      182.92322     -10128.324      955            111073.62      0.0086891483 
    956000  -10307.39       185.19539     -10122.195      956            111190.03      0.0085904743 
    957000  -10308.988      176.67311     -10132.315      957            111303.96      0.0087769242 
    958000  -10311.194      174.53306     -10136.661      958            111418.73      0.0087129907 
    959000  -10309.368      172.09681     -10137.271      959            111534.03      0.0086731876 
    960000  -10308.47       177.4547      -10131.015      960            111650.05      0.0086190092 
    961000  -10307.014      182.55198     -10124.462      961            111766.9       0.0085584757 
    962000  -10321.065      175.01456     -10146.051      962            111886.19      0.0083831236 
    963000  -10313.504      180.86958     -10132.635      963            112004.87      0.0084254091 
    964000  -10312.416      174.06864     -10138.348      964            112125.18      0.0083123274 
    965000  -10306.058      179.57764     -10126.48       965            112241.94      0.0085643823 
    966000  -10318.228      182.58128     -10135.647      966            112358.05      0.008612876  
    967000  -10308.015      176.8609      -10131.154      967            112473.69      0.0086474264 
    968000  -10314.958      181.77605     -10133.182      968            112588.61      0.008701803  
    969000  -10317.258      172.98812     -10144.27       969            112702.98      0.0087430724 
    970000  -10307.196      178.18753     -10129.009      970            112816.78      0.0087874887 
    971000  -10317.252      176.04364     -10141.208      971            112932.09      0.0086723157 
    972000  -10313.609      183.43427     -10130.175      972            113048.04      0.0086240286 
    973000  -10315.875      176.61345     -10139.262      973            113163.44      0.0086660762 
    974000  -10314.12       176.51247     -10137.608      974            113279.03      0.0086507169 
    975000  -10308.13       186.66708     -10121.463      975            113397.28      0.0084567277 
    976000  -10311.988      174.61802     -10137.37       976            113516.37      0.0083969989 
    977000  -10314.081      178.07715     -10136.004      977            113631.92      0.0086541511 
    978000  -10314.856      185.92632     -10128.929      978            113747.14      0.0086792204 
    979000  -10304.28       175.87216     -10128.408      979            113861.95      0.0087098496 
    980000  -10316.566      168.83763     -10147.728      980            113977.8       0.0086320656 
    981000  -10308.125      176.15075     -10131.974      981            114092.63      0.0087088564 
    982000  -10321.472      180.98926     -10140.482      982            114208.36      0.0086406044 
    983000  -10321.786      190.33463     -10131.452      983            114329.59      0.0082487301 
    984000  -10321.471      181.68391     -10139.787      984            114446.51      0.0085531104 
    985000  -10310.475      178.66658     -10131.808      985            114560.42      0.0087790504 
    986000  -10313.636      188.4859      -10125.151      986            114674.36      0.0087762655 
    987000  -10315.398      177.2932      -10138.105      987            114790.66      0.0085980578 
    988000  -10302.985      182.06094     -10120.924      988            114905.4       0.008715854  
    989000  -10316.714      176.98174     -10139.733      989            115022.19      0.008562135  
    990000  -10317.973      177.01349     -10140.96       990            115141.03      0.0084150733 
    991000  -10309.494      172.62106     -10136.873      991            115258.17      0.0085364436 
    992000  -10306.662      184.84766     -10121.814      992            115373.17      0.0086959811 
    993000  -10312.957      174.93299     -10138.024      993            115486.12      0.0088533783 
    994000  -10305.08       179.34328     -10125.737      994            115599.63      0.0088098541 
    995000  -10315.515      177.10529     -10138.409      995            115713.7       0.0087659952 
    996000  -10307.645      182.52497     -10125.12       996            115828.18      0.008735657  
    997000  -10319.378      181.24233     -10138.136      997            115945.87      0.0084968668 
    998000  -10304.053      179.42224     -10124.631      998            116061.51      0.008647556  
    999000  -10314.733      175.46629     -10139.267      999            116173.42      0.0089353597 
   1000000  -10302.938      181.76033     -10121.178      1000           116284.38      0.009012327  
Loop time of 116284 on 16 procs for 1000000 steps with 1152 atoms

Performance: 0.743 ns/day, 32.301 hours/ns, 8.600 timesteps/s, 9.907 katom-step/s
99.3% CPU use with 16 MPI tasks x 1 OpenMP threads

MPI task timing breakdown:
Section |  min time  |  avg time  |  max time  |%varavg| %total
---------------------------------------------------------------
Pair    | 33669      | 34643      | 35585      | 342.8 | 29.79
Neigh   | 362.41     | 379.64     | 418.01     |  74.7 |  0.33
Comm    | 1875.7     | 2729       | 3593.1     |1172.8 |  2.35
Output  | 0.17027    | 0.18328    | 0.35376    |  10.3 |  0.00
Modify  | 78330      | 78523      | 78690      |  42.2 | 67.53
Other   |            | 9.111      |            |       |  0.01

Nlocal:             72 ave          76 max          68 min
Histogram: 1 1 0 0 0 12 0 0 1 1
Nghost:        852.062 ave         858 max         838 min
Histogram: 1 0 0 1 0 1 3 2 4 4
Neighs:              0 ave           0 max           0 min
Histogram: 16 0 0 0 0 0 0 0 0 0
FullNghs:      6455.62 ave        6761 max        5918 min
Histogram: 1 0 0 1 1 4 2 2 3 2

Total # of neighbors = 103290
Ave neighs/atom = 89.661458
Neighbor list builds = 2000000
Dangerous builds = 0

unfix temp

min_style cg
fix 0 all box/relax aniso 0 vmax 0.001
minimize 0 0 100000 100000
Per MPI rank memory allocation (min/avg/max) = 5.539 | 5.542 | 5.543 Mbytes
   Step         PotEng         KinEng         TotEng          Time           CPU           T/CPU     
   1000000  -10302.938      181.76033     -10121.178      1000           0              0            
   1001000  -10503.047      181.76033     -10321.286      1001           46.982633      0.02128446   
   1002000  -10509.542      181.76033     -10327.782      1002           105.03893      0.017224661  
   1003000  -10509.573      181.76033     -10327.812      1003           168.81976      0.015678693  
   1004000  -10509.573      181.76033     -10327.813      1004           232.37087      0.015735366  
   1005000  -10509.573      181.76033     -10327.813      1005           295.97032      0.015723405  
   1006000  -10509.573      181.76033     -10327.813      1006           359.38069      0.015770292  
   1007000  -10509.573      181.76033     -10327.813      1007           422.82213      0.015762569  
   1008000  -10509.574      181.76033     -10327.813      1008           486.25424      0.015764884  
   1009000  -10509.574      181.76033     -10327.813      1009           549.35704      0.015847157  
   1010000  -10509.574      181.76033     -10327.813      1010           613.24632      0.01565208   
   1011000  -10509.574      181.76033     -10327.813      1011           679.03957      0.015199127  
   1012000  -10509.574      181.76033     -10327.813      1012           744.6046       0.015252032  
   1013000  -10509.574      181.76033     -10327.813      1013           810.05915      0.015277776  
   1014000  -10509.574      181.76033     -10327.813      1014           875.00437      0.015397593  
   1015000  -10509.574      181.76033     -10327.813      1015           938.97053      0.015633266  
   1016000  -10509.574      181.76033     -10327.813      1016           1002.7838      0.015670716  
   1017000  -10509.574      181.76033     -10327.813      1017           1066.7239      0.015639636  
   1018000  -10509.574      181.76033     -10327.813      1018           1130.5981      0.015655784  
   1019000  -10509.574      181.76033     -10327.813      1019           1194.7287      0.01559318   
   1020000  -10509.574      181.76033     -10327.813      1020           1258.7242      0.015626099  
   1021000  -10509.574      181.76033     -10327.813      1021           1323.1826      0.015513889  
   1022000  -10509.574      181.76033     -10327.813      1022           1387.2114      0.01561795   
   1023000  -10509.574      181.76033     -10327.813      1023           1451.2802      0.015608241  
   1024000  -10509.574      181.76033     -10327.813      1024           1515.2311      0.015636977  
   1025000  -10509.574      181.76033     -10327.813      1025           1579.2986      0.015608546  
   1026000  -10509.574      181.76033     -10327.813      1026           1643.6741      0.015533854  
   1027000  -10509.574      181.76033     -10327.813      1027           1707.9347      0.015561645  
   1028000  -10509.574      181.76033     -10327.813      1028           1772.4236      0.015506542  
   1029000  -10509.574      181.76033     -10327.813      1029           1836.7334      0.015549732  
   1030000  -10509.574      181.76033     -10327.813      1030           1901.2531      0.015499143  
   1031000  -10509.574      181.76033     -10327.813      1031           1966.025       0.015438788  
   1032000  -10509.574      181.76033     -10327.813      1032           2030.4835      0.015513866  
   1033000  -10509.574      181.76033     -10327.813      1033           2095.3066      0.0154266    
   1034000  -10509.574      181.76033     -10327.813      1034           2160.0016      0.015457149  
   1035000  -10509.574      181.76033     -10327.813      1035           2224.6408      0.015470469  
   1036000  -10509.574      181.76033     -10327.813      1036           2290.5886      0.015163528  
   1037000  -10509.574      181.76033     -10327.813      1037           2356.7967      0.015103885  
   1038000  -10509.574      181.76033     -10327.813      1038           2422.6609      0.015182748  
   1039000  -10509.574      181.76033     -10327.813      1039           2488.8839      0.0151005    
   1040000  -10509.574      181.76033     -10327.813      1040           2554.7137      0.015190693  
   1041000  -10509.574      181.76033     -10327.813      1041           2620.5647      0.015185785  
   1042000  -10509.574      181.76033     -10327.813      1042           2687.1533      0.015017591  
   1043000  -10509.574      181.76033     -10327.813      1043           2753.2821      0.015122009  
   1044000  -10509.574      181.76033     -10327.813      1044           2819.5476      0.015090809  
   1045000  -10509.574      181.76033     -10327.813      1045           2886.2345      0.014995445  
   1046000  -10509.574      181.76033     -10327.813      1046           2952.2215      0.015154492  
   1047000  -10509.574      181.76033     -10327.813      1047           3017.7564      0.015259044  
   1048000  -10509.574      181.76033     -10327.813      1048           3083.766       0.015149308  
   1049000  -10509.574      181.76033     -10327.813      1049           3150.4597      0.014993938  
   1050000  -10509.574      181.76033     -10327.813      1050           3216.907       0.015049506  
   1050448  -10509.574      181.76033     -10327.813      1050.448       3246.9334      0.014920245  
Loop time of 3246.93 on 16 procs for 50448 steps with 1152 atoms

99.3% CPU use with 16 MPI tasks x 1 OpenMP threads

Minimization stats:
  Stopping criterion = max force evaluations
  Energy initial, next-to-last, final = 
     -10302.9381163536  -10509.5735226981  -10509.5735226981
  Force two-norm initial, final = 263.8533 3.0321181e-11
  Force max component initial, final = 155.56233 2.5290492e-11
  Final line search alpha, max atom move = 1 2.5290492e-11
  Iterations, force evaluations = 50448 100001

MPI task timing breakdown:
Section |  min time  |  avg time  |  max time  |%varavg| %total
---------------------------------------------------------------
Pair    | 2803.1     | 2918.8     | 3131.7     | 167.1 | 89.89
Neigh   | 0.0005084  | 0.0006649  | 0.00071923 |   0.0 |  0.00
Comm    | 45.03      | 197.25     | 382.4      | 717.3 |  6.08
Output  | 0.0065333  | 0.007139   | 0.015634   |   2.6 |  0.00
Modify  | 0          | 0          | 0          |   0.0 |  0.00
Other   |            | 130.9      |            |       |  4.03

Nlocal:             72 ave          75 max          69 min
Histogram: 1 0 0 1 0 12 1 0 0 1
Nghost:        871.375 ave         881 max         862 min
Histogram: 2 1 1 0 2 4 4 1 0 1
Neighs:              0 ave           0 max           0 min
Histogram: 16 0 0 0 0 0 0 0 0 0
FullNghs:       7165.5 ave        7447 max        6650 min
Histogram: 1 0 0 1 1 4 3 2 2 2

Total # of neighbors = 114648
Ave neighs/atom = 99.520833
Neighbor list builds = 2
Dangerous builds = 0

write_data data.CSRO
System init for write_data ...

print "all done"
all done
Total wall time: 33:12:11
