LAMMPS data file via write_data, version 22 Dec 2022, timestep = 1050242

1152 atoms
5 atom types

-0.01692276273786722 15.423723346892874 xlo xhi
-0.007891154399569498 16.349270908568656 ylo yhi
0.27122271283621324 70.88974100408151 zlo zhi

Masses

1 180.948
2 92.9064
3 50.9415
4 95.94
5 183.84

Atoms # atomic

1095 3 2.5347894305342633 2.3964077083392583 2.9402089292990765 -4 -3 1
1145 2 3.753606092103154 1.445282735358358 0.5542113107282134 -5 -3 1
1093 3 1.200383980959169 0.6334202647746292 0.499097662346089 -4 -3 1
1110 2 1.1498934643209042 3.22257114312535 0.5145935283240315 -4 -3 1
1131 3 5.148794396824008 0.5497584313297097 2.9119999327878245 -5 -3 1
1147 2 5.059666458341882 3.253508771995717 2.980678083668696 -5 -3 1
1134 2 6.367613234205372 2.3271783453001222 0.510777815870744 -5 -3 1
1135 2 7.650458600751073 1.457256100021483 2.990648296395105 -5 -3 1
1122 2 11.533876178843299 1.531991889458861 0.4789491228305113 -5 -3 1
1140 2 9.029305849733195 3.2707346435109637 0.5763215036756276 -5 -3 1
1118 3 10.181842143361859 2.4612798727066845 2.961505146082947 -5 -3 1
1116 2 8.921691696626542 0.6135468639036209 0.5012364363354187 -5 -3 1
1105 2 15.39865574876618 1.5338576427107335 2.884801747279202 -5 -3 1
1100 2 12.73444181178031 0.6250381091514489 2.911057585459952 -5 -3 1
1124 2 12.689436826361604 3.3447325787125526 2.8733943808383335 -5 -3 1
1104 3 14.05980704279081 2.395460582565161 0.4257326578909232 -5 -3 1
1112 2 2.534012900628674 5.07572508242918 2.9720528101106907 -4 -3 1
517 2 2.5227326031209016 7.894888104350394 2.9313576320240315 -4 -4 1
1146 2 3.7918229808693655 4.167067862199844 0.5322164584720523 -5 -3 1
1111 2 1.196231488231076 6.0457586820587546 0.5335677483705128 -4 -3 1
561 2 3.7900138427238264 6.961418657336352 0.5587373955640769 -5 -4 1
546 2 6.395697077230377 7.857920869510106 0.5466135504872403 -5 -4 1
1152 2 6.404734015437513 5.076165320853335 0.5633181188198895 -5 -3 1
1148 2 5.11867231645806 6.017687002818572 3.0081262247171927 -5 -3 1
1136 2 7.720709857405071 4.19244776692575 3.0312772072925696 -5 -3 1
547 2 7.685827973711864 6.919260243510875 3.001205029700462 -5 -4 1
1123 3 11.528736897656769 4.204345855302412 0.5777179734505166 -5 -3 1
1142 3 10.274543086755706 5.067312447080033 2.9210886602247217 -5 -3 1
1141 2 9.022888646195668 5.987392106866944 0.5786392624019103 -5 -3 1
531 2 10.262081989143557 7.766246284083041 2.9752130188595336 -5 -4 1
533 3 11.525292978580318 6.810985826171084 0.6103983313837044 -5 -4 1
1106 2 15.33133529232234 4.219431815820967 2.925199816958074 -5 -3 1
1129 2 14.0110630569464 5.02026600630334 0.520966489382691 -5 -3 1
520 2 15.316700392315868 6.941228439955803 2.9128111214919694 -5 -4 1
1125 3 12.660739397579363 5.99154716099231 2.9043428161073668 -5 -3 1
519 2 14.063113189053853 7.829393293310041 0.5359286288118956 -5 -4 1
582 2 1.2569620787476228 0.6494858169998386 5.332322871450006 -4 -3 0
600 2 1.2929705427645313 3.3492505419471645 5.34130140919837 -4 -3 0
584 2 2.6328265879730894 2.5155845641124177 7.782894353085891 -4 -3 0
643 2 3.8870940307701356 1.600010766792767 5.301336695429474 -5 -3 0
624 2 5.232328790180606 0.7245142419556876 7.71499032501873 -5 -3 0
645 3 5.213083947662555 3.5022041903665753 7.693717129909529 -5 -3 0
630 2 6.442397952914111 2.474972453504189 5.408484327171554 -5 -3 0
631 3 7.700167982618751 1.583616050590737 7.675800918816801 -5 -3 0
636 3 8.875566570174126 3.2872002251732173 5.3929498363347586 -5 -3 0
608 3 8.81242755518968 0.660438282521903 5.380047541183726 -5 -3 0
610 3 9.976246242085294 2.4903815990337255 7.657040457351904 -5 -3 0
615 2 11.32250633504167 1.5322810682222314 5.338610368684869 -5 -3 0
595 2 15.302187768279348 1.558062835389969 7.756247424198742 -5 -3 0
594 2 14.000569091334338 2.4324355908727373 5.343763687061602 -5 -3 0
617 2 12.619844609921298 3.262615063354897 7.7144823236971884 -5 -3 0
588 3 12.649488843819213 0.6320141396397813 7.726096268079159 -5 -3 0
601 2 1.2647636933677275 6.054620101296324 5.347545327166668 -4 -3 0
602 2 2.6817193036325917 5.188846438133031 7.759808935752426 -4 -3 0
644 3 3.9386592119412267 4.268030230799952 5.418963757678392 -5 -3 0
57 2 3.89559887591089 6.915515483875992 5.405174556467491 -5 -4 0
2 2 2.662714872634289 7.940745823505432 7.804788131102726 -4 -4 0
38 2 6.42411428914645 7.825050255929444 5.471054771485656 -5 -4 0
646 3 5.232252152160112 6.064735991665002 7.774748337868024 -5 -3 0
648 3 6.368853949248336 5.115679743016902 5.458199667348721 -5 -3 0
39 3 7.5572713851009246 6.919882370751184 7.813613479038827 -5 -4 0
632 3 7.613978658545659 4.289551226897029 7.698878863176968 -5 -3 0
23 3 11.433964042533397 6.962008734167414 5.286745238316956 -5 -4 0
616 2 11.338777529948452 4.267785277954889 5.29674129122431 -5 -3 0
18 2 10.051646554583678 7.804613257028774 7.715194817110646 -5 -4 0
637 2 8.894935779029689 5.9733245960989105 5.40871231499303 -5 -3 0
638 3 9.981891429127753 5.068935458167893 7.701930803062549 -5 -3 0
620 2 13.996679304499269 5.143559655442407 5.298791096871453 -5 -3 0
6 2 13.988261787159905 7.851177316396733 5.305060504581241 -5 -4 0
596 2 15.376320597839477 4.24413082851748 7.750681134956559 -5 -3 0
7 2 15.393152642490865 6.972883964893471 7.7215324028487355 -5 -4 0
618 2 12.647665526562358 6.02699008010315 7.6531619668850315 -5 -3 0
579 2 1.2391205692264122 0.7444676082807914 10.056012979021645 -4 -3 0
581 2 2.591021051608247 2.5860230505342994 12.16310994709757 -4 -3 0
597 3 1.2436347386283242 3.4133356462767956 10.065130379488055 -4 -3 0
639 3 3.8948616775806206 1.6932353220768945 10.003650801722781 -5 -3 0
622 2 5.184237147936776 0.7038295645190907 12.187063664771715 -5 -3 0
626 2 6.391218687403427 2.5441706194617897 9.945409129409896 -5 -3 0
641 3 5.1494424910902135 3.542536252031816 12.18594569224115 -5 -3 0
627 3 7.677772529359222 1.577916117436535 12.174407882547188 -5 -3 0
605 3 8.792645615916943 0.67643123322759 10.000387196777927 -5 -3 0
633 3 8.79835762604067 3.372361542865528 9.940571314565538 -5 -3 0
607 3 9.991633556649544 2.426269314889946 12.208972680422145 -5 -3 0
611 2 11.317944780322858 1.4832459372646285 10.000557217694805 -5 -3 0
591 3 15.291480958686096 1.6342844417833102 12.251241908500313 -5 -3 0
590 3 14.036842709859414 2.436903222707166 10.063824612912299 -5 -3 0
586 3 12.656206031119323 0.6013922206306432 12.299661308465584 -5 -3 0
613 2 12.710926457723076 3.265200005384857 12.214948456608395 -5 -3 0
598 2 1.3336392547065037 6.092701965429384 10.09313321160649 -4 -3 0
599 3 2.61257990534478 5.285782830998574 12.218759965373472 -4 -3 0
53 3 3.943268399398958 7.0117653362352925 10.052553883031742 -5 -4 0
1 3 2.5696365422105303 7.919305595172661 12.19481963887932 -4 -4 0
640 3 3.9406934170987915 4.361393680159572 10.028679408858775 -5 -3 0
642 3 5.085545689173666 6.137965792754927 12.136782077568338 -5 -3 0
647 3 6.357090579083501 5.262666991307825 9.957173703560503 -5 -3 0
35 3 6.3447537828583185 7.885276177636734 9.982248141744083 -5 -4 0
36 3 7.493965812572125 6.986818651582132 12.121517604617214 -5 -4 0
628 3 7.575177166734944 4.324846246830911 12.146151564269111 -5 -3 0
634 3 8.707059974590361 6.042350437213891 9.961835045863722 -5 -3 0
635 3 9.922004972515035 5.136519125529504 12.174857710843785 -5 -3 0
612 2 11.254916853865069 4.231829277485439 9.979860000124251 -5 -3 0
17 2 10.028217511248114 7.9073344188844805 12.196110414520543 -5 -4 0
19 2 11.32081295731553 6.9901686871585955 9.988039756946096 -5 -4 0
592 3 15.380297739109043 4.2891821894088755 12.216391570096253 -5 -3 0
4 3 0.021632190575264332 6.992977347453208 12.260922867636848 -4 -4 0
3 2 14.080243939197354 7.882406730787381 10.080080029277557 -5 -4 0
619 2 14.051276280022707 5.096246895365164 10.04524343077554 -5 -3 0
614 2 12.69225285926085 6.099875586492209 12.271014914961803 -5 -3 0
654 3 1.1725515587442297 0.7272212829942691 14.392237180041779 -4 -3 0
656 3 2.4944960484642995 2.513024204832985 16.35687393467633 -4 -3 0
672 2 1.1865733384457753 3.45061407859239 14.32615311836996 -4 -3 0
715 3 3.84489478388692 1.6281134585044124 14.373172942285478 -5 -3 0
696 3 5.046820382370364 0.6969888028154299 16.28659967721749 -5 -3 0
702 3 6.3452035797495325 2.539280710991322 14.264672463850992 -5 -3 0
717 3 5.0337844044161075 3.443624038770626 16.284388713290262 -5 -3 0
703 3 7.549882744433238 1.6099023182191263 16.27348781980097 -5 -3 0
680 3 8.82123477510012 0.671897528528256 14.198326031664255 -5 -3 0
708 3 8.766465163249798 3.3709919124245964 14.26449724175126 -5 -3 0
682 3 10.098931746149699 2.514916330367299 16.341131407851336 -5 -3 0
687 3 11.396751495990591 1.5163206175667834 14.282109317890603 -5 -3 0
667 3 15.275795102507049 1.59504079308983 16.358846992205418 -5 -3 0
666 3 14.016493128139363 2.44822109788534 14.352624783668235 -5 -3 0
660 3 12.729367086637101 0.696763593021279 16.343553075113867 -5 -3 0
689 3 12.734905681844369 3.3752396129704803 16.397154858340144 -5 -3 0
74 3 2.461159595836803 7.931389749871157 16.31081023596246 -4 -4 0
673 3 1.2295606932845093 6.172136924747195 14.297300897878308 -4 -3 0
674 3 2.467500745265827 5.283360331087688 16.32878154653444 -4 -3 0
129 3 3.782357310957734 7.034994629116324 14.246534046135642 -5 -4 0
716 3 3.853787144140366 4.393708827845314 14.275707871917051 -5 -3 0
718 3 5.009337490415971 6.150762708325253 16.271983615030575 -5 -3 0
720 3 6.305934925758417 5.245981869395097 14.238566633455678 -5 -3 0
704 3 7.546577980727056 4.318080682713419 16.282037264733955 -5 -3 0
111 3 7.54021357279169 7.024156717677698 16.24915807567245 -5 -4 0
110 3 6.2926381932363835 7.9182557191869645 14.203979139905465 -5 -4 0
90 3 10.108325335919494 7.921357015307217 16.303950833187294 -5 -4 0
709 3 8.763071391267284 6.089789986015387 14.258857827927319 -5 -3 0
710 3 10.059579769224257 5.232175929950118 16.377964975871404 -5 -3 0
688 2 11.340750199140663 4.285193675947779 14.347218873204682 -5 -3 0
95 3 11.328514555959272 7.03042201598355 14.384335892755344 -5 -4 0
692 3 14.066994716703004 5.163850676314015 14.375447718187107 -5 -3 0
79 3 15.343496699491945 7.006390733531244 16.398262857961527 -5 -4 0
690 3 12.694635908781931 6.115038256765095 16.3983951880676 -5 -3 0
668 3 15.256046749859165 4.3564680807990825 16.391190145202835 -5 -3 0
78 2 14.029579515566011 7.907532037647813 14.335834379776792 -5 -4 0
669 3 1.1089859323071998 3.442294454588451 18.337617183140637 -4 -3 0
653 3 2.3248072633004724 2.568387651864434 20.32754174314162 -4 -3 0
651 3 1.1001283969003954 0.7637761618508827 18.335909604951834 -4 -3 0
711 3 3.641836038579695 1.6526968168283374 18.25589646158674 -5 -3 0
727 3 1.071658365066173 0.7125342853252191 22.316191120807495 -4 -3 0
805 3 3.5174084291193157 1.6471502285522943 22.36350882023897 -5 -3 0
750 3 1.0535238805131033 3.4948709306974544 22.33623013743865 -4 -3 0
694 2 4.898483523733228 0.7101945596880075 20.264845706306577 -5 -3 0
713 3 4.885282430222185 3.5227060281185336 20.23889807913168 -5 -3 0
698 3 6.2715223063299055 2.5516841969037447 18.255126896679496 -5 -3 0
699 3 7.595078677199022 1.6213690301216368 20.233491960470428 -5 -3 0
679 3 10.118950297175378 2.543650131954086 20.306255885797146 -5 -3 0
795 3 8.861668812268933 3.4742626516258768 22.29213894853457 -5 -3 0
705 3 8.82935029300541 3.4273241200466575 18.298044652673482 -5 -3 0
677 3 8.797812509176575 0.7261257538152857 18.313957631682417 -5 -3 0
761 3 8.85581734853227 0.7983779195583719 22.268213761961473 -5 -3 0
769 3 11.393249723226761 1.6611925473646902 22.314844463097792 -5 -3 0
683 3 11.423569455046906 1.6253853423961182 18.345876298385 -5 -3 0
663 3 15.235916005852037 1.6499520861732737 20.337679912779226 -5 -3 0
662 3 13.984754517126964 2.5257533675479484 18.353627727561733 -5 -3 0
658 3 12.692364878489197 0.7371509867098199 20.323763425940726 -5 -3 0
685 3 12.676237774869588 3.4555343644869416 20.337318295452345 -5 -3 0
744 3 13.898676692088918 2.601212280858798 22.303457777975233 -5 -3 0
671 3 2.3494426855471175 5.257493326250694 20.32347469514768 -4 -3 0
670 3 1.1205088810263042 6.15148875173378 18.34786351057886 -4 -3 0
806 3 3.585920718278567 4.3723012780313875 22.318792570342133 -5 -3 0
712 3 3.6765813481592358 4.357494191952281 18.289139115988334 -5 -3 0
125 3 3.687454482794865 7.044411767470733 18.290761032551412 -5 -4 0
73 3 2.3568544964051203 7.960723766445693 20.32312908087598 -4 -4 0
714 3 4.9134062712220885 6.124146916340403 20.254271669266778 -5 -3 0
810 3 6.193045757997269 5.239393800271997 22.265463925115153 -5 -3 0
719 3 6.255279479815776 5.243278795689686 18.263885691304957 -5 -3 0
108 3 7.566574955829424 7.010760975524943 20.211714608274196 -5 -4 0
700 3 7.539316623264251 4.360026740185796 20.25183075290425 -5 -3 0
107 3 6.261216750049024 7.9372492305957625 18.243604527140583 -5 -4 0
707 3 10.125864907400196 5.250547860752534 20.307597519448986 -5 -3 0
706 3 8.825822366807898 6.133310655879136 18.289630810892756 -5 -3 0
89 3 10.132872864084215 7.944845389819243 20.295143658561067 -5 -4 0
91 3 11.41498244982456 7.032602573400137 18.343390626930525 -5 -4 0
684 3 11.414326295015359 4.327738396543703 18.35043004965407 -5 -3 0
174 3 11.410280199059715 7.067266943629083 22.325004028854792 -5 -4 0
76 3 15.24701931417646 7.06585738472125 20.354616263725134 -5 -4 0
664 3 15.243516456313984 4.3599052165272445 20.346926858939188 -5 -3 0
691 3 13.978069635984935 5.244816142205874 18.363599931817266 -5 -3 0
686 3 12.695335155095455 6.156216317635463 20.348604574762977 -5 -3 0
75 3 13.98418394632648 7.942686739198558 18.367237150372407 -5 -4 0
774 3 13.949397435927752 5.281859148981593 22.355010159031337 -5 -3 0
724 3 1.0021021293597385 0.7327331906668306 26.459781839081266 -4 -3 0
729 3 2.3134081001795512 2.57419661091581 24.365138590053007 -4 -3 0
800 3 3.4630286381554796 1.64759567332254 26.327144204313615 -5 -3 0
747 3 1.0121349595339264 3.496069509200021 26.46036149044958 -4 -3 0
789 2 6.20467315503174 2.5619028997456135 22.303425556684918 -5 -3 0
781 3 4.80008479123727 0.7242050232520947 24.339580720844108 -5 -3 0
807 3 4.805103176973847 3.482167873040771 24.364287121926658 -5 -3 0
783 3 6.100193638187882 2.551566032676996 26.243334930213322 -5 -3 0
791 3 7.525744928930324 4.314363138306799 24.329174416047913 -5 -3 0
756 3 8.847803974108961 0.8220662081697837 26.269494499097554 -5 -3 0
790 3 7.536840453644304 1.6864963738791483 24.34681159641571 -5 -3 0
792 3 8.888549346818275 3.4466415133105706 26.27723223627294 -5 -3 0
763 3 10.12897978353384 2.580592811254462 24.317678824536536 -5 -3 0
764 3 11.424406816363831 1.6948794412223511 26.36347634403278 -5 -3 0
745 2 15.182994398501629 1.6680141510044146 24.3782074211834 -5 -3 0
738 3 13.912276614106965 2.614895250967221 26.4589773881928 -5 -3 0
736 3 12.625036021616069 0.7582671990122963 24.350948943259567 -5 -3 0
771 3 12.648747576677684 3.509428218437985 24.36342572688217 -5 -3 0
217 3 3.558654625658236 7.047439518948279 22.317887727302402 -5 -4 0
146 3 2.2894293761536484 7.973996640891409 24.355282342059013 -4 -4 0
751 3 1.0558727570763409 6.178951700781452 22.353603966724883 -4 -3 0
748 3 1.0286756414103626 6.188425046206087 26.435067683101494 -4 -3 0
752 3 2.280707134059242 5.277474192586743 24.372894883471194 -4 -3 0
211 3 3.5207750121007204 7.053915058626088 26.37281682511207 -5 -4 0
801 3 3.47851799386143 4.39648224814053 26.35113730540469 -5 -3 0
193 2 6.169387946086172 7.9829069952620175 22.23537237697357 -5 -4 0
188 3 6.0957913773741685 7.9430393208874195 26.29059041737987 -5 -4 0
808 3 4.79958963946565 6.135793525940865 24.329130149524413 -5 -3 0
809 3 6.0666035567512635 5.27767778280044 26.27768154822477 -5 -3 0
194 2 7.554922092069256 7.020306865298282 24.344196286887655 -5 -4 0
796 3 8.869271887132808 6.122071697578781 22.249993909629122 -5 -3 0
167 3 10.192970164870788 7.988193907709811 24.322619076476215 -5 -4 0
797 3 10.160710652834982 5.260112175389589 24.316383761401887 -5 -3 0
793 3 8.962931411322195 6.120474551604412 26.322255199173263 -5 -3 0
770 3 11.393173884966654 4.373852320482708 22.331933176655333 -5 -3 0
148 3 13.987649260998731 7.999192144608879 26.395598722911753 -5 -4 0
153 3 13.960705849795108 7.97661355510875 22.352183794109983 -5 -4 0
746 3 15.195177856211012 4.439357760363261 24.39206731763831 -5 -3 0
773 3 13.967717331448748 5.2927576126047935 26.415735953733844 -5 -3 0
154 3 15.213625724652076 7.0924621699315935 24.37987144963372 -5 -4 0
772 3 12.688302331594242 6.190017750549426 24.356399316501246 -5 -3 0
168 3 11.463836396745885 7.088563953991359 26.352787817555416 -5 -4 0
765 3 11.439943421566602 4.382200307979541 26.365728257015437 -5 -3 0
722 3 1.0655418686318603 0.7172200735641122 30.634994577978066 -4 -3 0
726 3 2.173984208695706 2.548571814136358 28.524598869971353 -4 -3 0
741 3 1.028227625310075 3.463762421718106 30.632979931441277 -4 -3 0
798 3 3.4413023368409434 1.6134693536612728 30.65115872728357 -5 -3 0
740 3 15.239603477485506 4.37584505581188 28.520073977076734 -5 -3 0
777 2 4.7152002506639645 0.6756186709725723 28.46069252670031 -5 -3 0
802 2 4.731996625516512 3.496986784688557 28.42834699868464 -5 -3 0
779 2 6.086485005415738 2.4711020137109423 30.67331492853437 -5 -3 0
784 2 7.46571260529309 1.6347967449312784 28.36455611876002 -5 -3 0
754 2 8.8328207322286 0.6867315047807334 30.7107273452571 -5 -3 0
786 2 8.843372667664367 3.42803739045343 30.607424792559105 -5 -3 0
758 3 10.201809095792063 2.571277646097978 28.36661814300171 -5 -3 0
739 3 15.205687847813378 1.6815271048020812 28.509074024391246 -5 -3 0
734 3 14.052874330384896 2.5684532480313984 30.581967449169436 -5 -3 0
732 3 12.724540412819163 0.7916743873707814 28.451068015798455 -5 -3 0
759 3 11.505522683423186 1.5835491243039483 30.579140402351328 -5 -3 0
766 3 12.753857943710168 3.4388168136294888 28.428697079588673 -5 -3 0
145 3 2.2250458743239556 7.96588828021956 28.48908827303709 -4 -4 0
742 3 1.089843650323943 6.174491349381941 30.59905785178701 -4 -3 0
749 3 2.253676526509297 5.300811403426771 28.52255912223856 -4 -3 0
799 3 3.469929455490709 4.391572787598161 30.62565210331353 -5 -3 0
209 3 3.533103386074533 7.0589158307869315 30.663885264981282 -5 -4 0
803 3 4.738779866905543 6.187644934390552 28.434819446733172 -5 -3 0
804 2 6.067377029168038 5.358070738603792 30.65518100592714 -5 -3 0
785 2 7.486356131224546 4.38089991928672 28.330970031309533 -5 -3 0
189 2 7.483971227761757 7.134093589931971 28.360885443151172 -5 -4 0
187 3 6.105981888008873 8.000206383313568 30.6657813783441 -5 -4 0
787 2 8.82824150982258 6.200586832103845 30.60075994739614 -5 -3 0
794 3 10.204635528844566 5.266121433964334 28.31757350696333 -5 -3 0
165 2 11.475426562896883 7.097903735903025 30.54918460788742 -5 -4 0
164 3 10.221225882117176 7.965506142798089 28.314172419325214 -5 -4 0
760 2 11.516130705213127 4.301886497327962 30.54984773246864 -5 -3 0
149 3 15.28191396268146 7.0665051874684375 28.45212541455905 -5 -4 0
147 2 14.080984012627292 8.034198600301707 30.578852124067208 -5 -4 0
768 3 14.110124993007535 5.203120295778832 30.60179384936706 -5 -3 0
767 3 12.782538701625153 6.158052707917619 28.382785053900587 -5 -3 0
813 3 1.196290424119443 0.5581082470737407 35.21397070848635 -4 -3 0
827 2 1.0599686602163518 3.385191169582387 35.21235311600486 -4 -3 0
817 2 2.3475124589613086 2.4449585756466004 32.90558329535607 -4 -3 0
858 3 3.5842750753276085 1.4431360569733416 35.25467224607869 -5 -3 0
847 2 4.805282020869668 0.5517529653307496 33.01804941658233 -5 -3 0
862 2 4.859175666846466 3.4606797180111424 32.93154871855036 -5 -3 0
849 2 6.162167168701408 2.4123902170196843 35.29229426683386 -5 -3 0
852 2 7.484466068822963 1.544928130746483 32.99878583440722 -5 -3 0
833 2 8.849675740844285 0.5565220629080333 35.31229673609089 -5 -3 0
854 2 8.815750671149843 3.431236413156911 35.33568737854518 -5 -3 0
837 2 10.165237025009716 2.448680225835039 32.9389533114823 -5 -3 0
825 2 15.295743875378877 1.548548675601637 32.930075642041125 -5 -3 0
838 2 11.455899301036109 1.5319192766683765 35.2993658793946 -5 -3 0
842 2 12.81934873424602 3.412756351850691 32.91140788084943 -5 -3 0
820 2 12.707967990815908 0.6093070465865847 32.92935773138917 -5 -3 0
822 3 14.041784842069678 2.476072685320229 35.243572722715804 -5 -3 0
828 2 1.0911853363864457 6.318936253220352 35.26910421359608 -4 -3 0
240 2 15.323657401034362 7.13995298212444 32.93455496920618 -5 -4 0
830 2 2.34759059926739 5.329556663586872 32.865242373620106 -4 -3 0
275 2 3.589771642158125 7.259081272457349 35.26971296451241 -5 -4 0
859 2 3.635399163627897 4.360273853273359 35.2611618088307 -5 -3 0
236 3 2.3351375251252495 8.097429270133619 32.95452716560121 -4 -4 0
863 3 4.833287331789925 6.260012898608507 32.90248830402404 -5 -3 0
864 2 6.213019516101815 5.341792526108628 35.26467378426219 -5 -3 0
264 2 7.412557386116835 7.182164089904463 32.96030352539917 -5 -4 0
853 2 7.482136232906921 4.3703872367633965 32.96805652380554 -5 -3 0
261 2 6.159570084651222 8.163506367623963 35.326232543011635 -5 -4 0
250 2 11.348711694300155 7.1693290956525 35.30324508141763 -5 -4 0
857 2 10.100937474592644 5.287864328646955 32.97493280154667 -5 -3 0
249 2 10.049225376450106 8.066977495413628 32.99585503012216 -5 -4 0
855 3 8.743637650461023 6.279031687938804 35.30897114398789 -5 -3 0
839 2 11.402117868901493 4.354493014321237 35.28648648273396 -5 -3 0
826 3 15.291619349029409 4.346040646625528 32.84508934647009 -5 -3 0
844 2 14.002069973862264 5.3107640381445 35.24981048925746 -5 -3 0
843 2 12.749832716808738 6.199597380736251 32.913960160429475 -5 -3 0
237 3 14.030273172532036 8.151721187746912 35.29835818035787 -5 -4 0
815 2 2.3906764649450825 2.4747385579919956 37.55988295524682 -4 -3 0
870 2 1.1275022096126381 0.6400083695857539 39.966428147241835 -4 -3 0
823 2 15.295154101939888 1.5280055594230375 37.52909355558665 -5 -3 0
931 2 3.6555138274437162 1.5252461098435977 39.9654291880156 -5 -3 0
888 2 1.119000884519734 3.505754191796358 39.97542516796882 -4 -3 0
846 2 4.911374054650435 0.5729981987360258 37.54029030803231 -5 -3 0
860 2 4.9190432738954595 3.4511583722549424 37.62683163989524 -5 -3 0
918 2 6.186009096596455 2.548984638847129 40.01318295342698 -5 -3 0
850 2 7.558811103292853 1.5480003330875032 37.63177903828651 -5 -3 0
835 3 10.097515951239197 2.460202718021588 37.628370582456746 -5 -3 0
903 2 11.379780900777707 1.613007735475777 39.966579119071525 -5 -3 0
819 2 12.691490343490102 0.6468298335380331 37.592448543878604 -5 -3 0
840 2 12.67089203603918 3.4269777306158287 37.6031174599115 -5 -3 0
829 2 2.3580447454848734 5.416178152752744 37.64756545658377 -4 -3 0
889 3 1.1654619575619898 6.411663586080563 40.00956165131059 -4 -3 0
345 3 3.520599885829248 7.292291940885675 39.97888114332298 -5 -4 0
861 2 4.865854079003776 6.3337416775875885 37.680114601302485 -5 -3 0
262 2 7.433361225053516 7.180530580965299 37.636133270905944 -5 -4 0
851 2 7.475756311572164 4.383004255602015 37.66459138797674 -5 -3 0
932 2 3.6632578083486624 4.498393952094081 39.993941145047714 -5 -3 0
936 3 6.143277112109986 5.371099409929985 40.03631757672456 -5 -3 0
326 2 6.063095447766054 8.105279869654328 40.00398061071573 -5 -4 0
856 2 10.045342528911887 5.287938552807404 37.62500211331667 -5 -3 0
904 2 11.365765719854211 4.40310934961946 40.019815831294544 -5 -3 0
925 2 8.677037853279986 6.239747090327129 40.052716960508356 -5 -3 0
248 2 10.004581072130055 8.132325226363005 37.62094387520315 -5 -4 0
824 2 15.273397127838933 4.398353157298988 37.607074909280115 -5 -3 0
908 2 14.030669202196258 5.3733234622560015 40.00814541213068 -5 -3 0
238 2 15.33277871381199 7.291818377786529 37.62919461696165 -5 -4 0
841 2 12.682392704747363 6.262959245269859 37.634485355648515 -5 -3 0
872 2 2.3154508322772087 2.5303185259823233 42.36042762953451 -4 -3 0
883 3 15.273615284319222 1.6247494200803851 42.36354737940848 -5 -3 0
912 2 4.9492596008750125 0.6056738274284545 42.394833428977584 -5 -3 0
933 2 4.8987423351814545 3.495468660098193 42.38505526437237 -5 -3 0
919 2 7.480175425811725 1.590982021491935 42.40401226143733 -5 -3 0
924 2 8.764623904036828 3.462479311480272 40.00933177042489 -5 -3 0
896 2 8.79352071096263 0.6450310504364143 39.97616276261912 -5 -3 0
898 2 10.060587053215018 2.5621577381146783 42.414975982251086 -5 -3 0
882 2 14.007713211794764 2.543763029280953 40.01920154842948 -5 -3 0
876 2 12.739510222965858 0.7141073488537116 42.38932228094947 -5 -3 0
905 2 12.676225214500477 3.51921083274048 42.40712398373084 -5 -3 0
890 2 2.330895568335304 5.457693716920715 42.31602701327628 -4 -3 0
290 3 2.303145450588854 8.152261332707086 42.302887246498216 -4 -4 0
295 3 15.311226968089596 7.281972193916702 42.32148109775596 -5 -4 0
934 2 4.885683095822864 6.314848898692657 42.39346632087417 -5 -3 0
920 2 7.432479461274808 4.450654458420652 42.439988805617425 -5 -3 0
327 2 7.444010578296858 7.219853842165613 42.499570851628334 -5 -4 0
926 2 10.02762780702107 5.371135011905477 42.460851259015115 -5 -3 0
311 2 11.35689834554453 7.155102639911216 40.03905477760142 -5 -4 0
306 2 10.072710932935115 8.106901582908778 42.49343561678625 -5 -4 0
906 2 12.697751880737886 6.328834342602676 42.452512352079694 -5 -3 0
884 2 15.23019221674796 4.464285917218204 42.38821428980995 -5 -3 0
294 2 14.058910254582523 8.07476236110337 40.068546052367196 -5 -4 0
869 2 2.3444342276659023 2.4946735441317607 47.066428853601366 -4 -3 0
885 2 1.0454231029663208 3.5133767479461206 44.742379702683365 -4 -3 0
867 2 1.1109251901585282 0.6896222139731631 44.75204126195504 -4 -3 0
927 2 3.6921746698294133 1.531391143758349 44.76093736890502 -5 -3 0
910 3 5.024302537555653 0.647430666349164 47.001229650090785 -5 -3 0
929 2 5.021962164441804 3.4708394272887175 47.037354515796125 -5 -3 0
914 2 6.233886948518485 2.523874591176595 44.77721974708035 -5 -3 0
915 3 7.537866469396323 1.5869462679298103 47.031268027590414 -5 -3 0
893 2 8.732949407495024 0.6385010897207815 44.80332939737012 -5 -3 0
921 2 8.753249650314089 3.5503000479894946 44.83763707245832 -5 -3 0
895 3 10.045246814741438 2.576001418838663 47.058802020761135 -5 -3 0
899 2 11.33113661417545 1.6685586365136527 44.793935803997606 -5 -3 0
879 3 15.213469212016188 1.7016429701525946 47.09466438089166 -5 -3 0
878 2 13.951154351123899 2.622075709262087 44.77954751963737 -5 -3 0
874 2 12.632389770515404 0.7714314849519235 47.066289356746836 -5 -3 0
901 3 12.636012792847554 3.556507481457946 47.05954973996162 -5 -3 0
886 2 1.0692191218869012 6.330883917885782 44.64030904986611 -4 -3 0
887 2 2.391253904045276 5.299227125710041 47.033043677425916 -4 -3 0
928 2 3.695844499050319 4.483624193232372 44.72630895907375 -5 -3 0
289 2 2.4828302335826637 8.032865677724955 46.91807460393529 -4 -4 0
341 3 3.7346858951618866 7.221798979015914 44.69891550837206 -5 -4 0
930 3 5.0736839639249975 6.254582623443214 46.9522513414725 -5 -3 0
935 3 6.252488854647327 5.431664973724559 44.83045134143762 -5 -3 0
324 3 7.567840756838669 7.069843982737485 46.94050529470177 -5 -4 0
323 3 6.232591545996616 7.9516780092673764 44.80119005920003 -5 -4 0
916 3 7.559959599039039 4.436181339941472 47.01493375482104 -5 -3 0
922 3 8.745412178649504 6.3013555235978105 44.853185335819155 -5 -3 0
923 3 10.057012995173256 5.330448165514641 47.02766831147582 -5 -3 0
307 3 11.289756400625114 7.116857448063974 44.843523858081305 -5 -4 0
900 2 11.359342661172969 4.4960891538984065 44.8228020156562 -5 -3 0
305 3 10.104428425539497 7.946751707556998 46.97732302047278 -5 -4 0
292 2 15.190182487859484 7.046288508738904 46.99686143850324 -5 -4 0
291 2 13.939455602395446 8.043952270679425 44.66784830505836 -5 -4 0
880 3 15.12151405982084 4.3575524786706215 47.037568260431 -5 -3 0
907 3 13.88212994768231 5.352149005558697 44.78677237051718 -5 -3 0
902 3 12.59498064012206 6.1959628167946565 46.9920804183656 -5 -3 0
943 3 1.081014375469306 0.7118409911389617 49.14595223700239 -4 -3 0
945 3 2.409487482369847 2.481065972907652 51.13049260942499 -4 -3 0
966 3 1.030295231482716 3.450432047463697 49.15559748515075 -4 -3 0
1021 3 3.7232032447561867 1.5815771854224479 49.129929584467 -5 -3 0
940 3 1.1555776853699276 0.6604445962794018 53.1459993528896 -4 -3 0
997 3 4.977543883320715 0.7795942476887391 51.05360758778478 -5 -3 0
1023 3 5.016620805635876 3.3849042127747198 51.098041233303626 -5 -3 0
1005 3 6.335875130280178 2.4952702560202176 49.07556051588861 -5 -3 0
1006 3 7.601521093787308 1.615326495946434 51.0295537151074 -5 -3 0
999 3 6.314796856327654 2.5295677081317254 53.11929831377499 -5 -3 0
977 3 8.833578829606799 0.7090787001972477 49.01495589584186 -5 -3 0
1011 3 8.837350315315609 3.4346805898315473 49.02731857649948 -5 -3 0
979 3 10.125967829106493 2.4876355999943733 51.055145815288164 -5 -3 0
985 3 11.325835671226638 1.6581224704424318 49.09665230422183 -5 -3 0
972 3 8.956532940301146 0.6803325213520133 53.10119066626367 -5 -3 0
1008 3 8.880871763364807 3.327702191256735 53.08584599831341 -5 -3 0
980 3 11.424264788141423 1.5030650678891324 53.06803902903513 -5 -3 0
954 3 14.05541471197525 2.3781798980017492 53.04800858765518 -5 -3 0
961 3 15.26776722065656 1.575720620024846 51.102416405164945 -5 -3 0
960 3 13.94640803141621 2.5620642923859775 49.095250134619555 -5 -3 0
952 3 12.679514990660952 0.6759240933214175 51.086368201724284 -5 -3 0
987 3 12.689534220285658 3.378580110211893 51.06323136773814 -5 -3 0
427 3 3.7018175930526325 6.912377943713642 53.11590752745833 -5 -4 0
964 3 1.2417427748322962 5.992549694835798 53.02569276572545 -4 -3 0
362 3 2.40582247798697 7.89869207638766 51.07729110714653 -4 -4 0
967 3 1.0886810955276034 6.132478211080156 49.14905241258922 -4 -3 0
968 3 2.4397864455125204 5.172731322843863 51.09721725958511 -4 -3 0
1022 3 3.72059384382105 4.3351832314322145 49.17099422871564 -5 -3 0
962 3 15.275535268158306 4.27347056138129 51.087144933721774 -5 -3 0
370 3 15.285868132778365 7.008130340431534 51.07479992557777 -5 -4 0
433 3 3.7762526561107115 6.991914138101006 49.07428671764159 -5 -4 0
1026 3 6.335003841118186 5.250998254511962 49.05470402315027 -5 -3 0
1024 3 5.033934631124695 6.0158890960769185 51.0693560517513 -5 -3 0
410 3 7.665841890359005 6.951654705667212 51.02403101859765 -5 -4 0