LAMMPS (22 Dec 2022)
OMP_NUM_THREADS environment is not set. Defaulting to 1 thread. (../comm.cpp:98)
  using 1 OpenMP thread(s) per MPI task
# general variables
variable	temperature equal 500 #change this to the temperature of interest
variable	nsteps_run equal 1000000

# general settings
units		metal
dimension 3
boundary	p p p

#processors      3 3 3
atom_style	atomic

# ------------------- ATOM DEFINE ------------------------------

variable        latparam equal 3.14489999999968             #variable

variable        xl equal 0
variable        xh equal 3
variable        yl equal 0
variable        yh equal 3
variable        zl equal 0
variable        zh equal 16

lattice         bcc ${latparam} orient x 1 1 -2 orient y 1 1 1 orient z 1 -1 0
lattice         bcc 3.14489999999968 orient x 1 1 -2 orient y 1 1 1 orient z 1 -1 0
Lattice spacing in x,y,z = 5.1356002 5.4471266 4.4475602
region          mybox block ${xl} ${xh} ${yl} ${yh} ${zl} ${zh}
region          mybox block 0 ${xh} ${yl} ${yh} ${zl} ${zh}
region          mybox block 0 3 ${yl} ${yh} ${zl} ${zh}
region          mybox block 0 3 0 ${yh} ${zl} ${zh}
region          mybox block 0 3 0 3 ${zl} ${zh}
region          mybox block 0 3 0 3 0 ${zh}
region          mybox block 0 3 0 3 0 16

create_box      5 mybox
Created orthogonal box = (0 0 0) to (15.406801 16.34138 71.160964)
  1 by 2 by 8 MPI processor grid

mass 1 180.948
mass 2 92.9064
mass 3 50.9415
mass 4 95.94
mass 5 183.84

create_atoms 3 box
Created 1152 atoms
  using lattice units in orthogonal box = (0 0 0) to (15.406801 16.34138 71.160964)
  create_atoms CPU = 0.011 seconds
set type 3 type/ratio 2 0.4 384
Setting atom values ...
  460 settings made for type/ratio

# ----------------------- FORCE FIELDS -----------------------
pair_style mlip mlip.ini
pair_coeff * *

# ------------------------- SETTINGS --------------------------
timestep 0.001
delete_atoms overlap 2 all all
System init for delete_atoms ...
Neighbor list info ...
  update: every = 1 steps, delay = 0 steps, check = yes
  max neighbors/atom: 2000, page size: 100000
  master list distance cutoff = 6.8
  ghost atom cutoff = 6.8
  binsize = 3.4, bins = 5 5 21
  2 neighbor lists, perpetual/occasional/extra = 1 1 0
  (1) command delete_atoms, occasional, copy from (2)
      attributes: full, newton on
      pair build: copy
      stencil: none
      bin: none
  (2) pair mlip, perpetual
      attributes: full, newton on
      pair build: full/bin/atomonly
      stencil: full/bin/3d
      bin: standard
Deleted 0 atoms, new total = 1152
velocity all create ${temperature} 4928459 rot yes dist gaussian
velocity all create 500 4928459 rot yes dist gaussian

fix 1 all atom/swap 1 1 114514 ${temperature} types 3 2
fix 1 all atom/swap 1 1 114514 500 types 3 2
fix temp all npt temp ${temperature} ${temperature} 0.1 iso 0 0 0.1
fix temp all npt temp 500 ${temperature} 0.1 iso 0 0 0.1
fix temp all npt temp 500 500 0.1 iso 0 0 0.1
thermo 1000
thermo_style custom step pe ke etotal time cpu tpcpu

dump 1 all custom 20000 dump.* id type x y z
run ${nsteps_run}
run 1000000
Neighbor list info ...
  update: every = 1 steps, delay = 0 steps, check = yes
  max neighbors/atom: 2000, page size: 100000
  master list distance cutoff = 6.8
  ghost atom cutoff = 6.8
  binsize = 3.4, bins = 5 5 21
  1 neighbor lists, perpetual/occasional/extra = 1 0 0
  (1) pair mlip, perpetual
      attributes: full, newton on
      pair build: full/bin/atomonly
      stencil: full/bin/3d
      bin: standard
Per MPI rank memory allocation (min/avg/max) = 4.345 | 4.351 | 4.355 Mbytes
   Step         PotEng         KinEng         TotEng          Time           CPU           T/CPU     
         0  -10812.172      74.389213     -10737.782      0              0              0            
      1000  -10781.747      73.018706     -10708.729      1              111.07929      0.009002578  
      2000  -10779.182      73.038389     -10706.143      2              225.72358      0.0087226323 
      3000  -10782.475      73.887597     -10708.587      3              343.11025      0.0085188554 
      4000  -10781.822      72.531996     -10709.29       4              460.87873      0.0084912361 
      5000  -10785.669      73.159977     -10712.509      5              580.68365      0.0083469024 
      6000  -10782.555      72.292315     -10710.263      6              700.15957      0.0083698879 
      7000  -10780.113      72.742609     -10707.371      7              820.20428      0.0083302294 
      8000  -10788.29       75.299833     -10712.99       8              941.88197      0.0082184335 
      9000  -10782.69       78.326837     -10704.363      9              1064.3051      0.00816839   
     10000  -10784.542      70.967893     -10713.574      10             1186.6856      0.0081712392 
     11000  -10785.126      77.491012     -10707.635      11             1306.4012      0.0083531292 
     12000  -10788.496      75.729283     -10712.767      12             1427.3833      0.0082656828 
     13000  -10789.686      73.880897     -10715.805      13             1546.66        0.0083838716 
     14000  -10786.959      75.100738     -10711.858      14             1661.4963      0.0087080462 
     15000  -10787.912      71.91459      -10715.997      15             1776.105       0.0087253407 
     16000  -10786.207      78.620171     -10707.587      16             1890.8726      0.0087132597 
     17000  -10790.477      75.057221     -10715.42       17             2004.2289      0.008821744  
     18000  -10791.351      73.40548      -10717.946      18             2115.9376      0.0089518518 
     19000  -10786.878      73.022743     -10713.855      19             2226.1656      0.009072105  
     20000  -10790.899      73.290112     -10717.609      20             2335.6465      0.0091340132 
     21000  -10784.835      77.371983     -10707.463      21             2444.9968      0.0091449214 
     22000  -10790.117      74.040188     -10716.076      22             2554.7036      0.0091152097 
     23000  -10789.88       75.370004     -10714.51       23             2663.2273      0.0092145757 
     24000  -10794.761      71.468081     -10723.293      24             2771.2715      0.0092554732 
     25000  -10791.443      73.746442     -10717.697      25             2880.4441      0.0091598063 
     26000  -10789.142      75.586694     -10713.555      26             2991.2144      0.009027689  
     27000  -10792.416      72.073957     -10720.343      27             3104.0149      0.0088652103 
     28000  -10789.823      73.048844     -10716.774      28             3217.423       0.0088177111 
     29000  -10793.041      71.463815     -10721.577      29             3331.8449      0.0087395878 
     30000  -10793.705      76.090403     -10717.615      30             3446.0773      0.0087540811 
     31000  -10791.141      74.520544     -10716.62       31             3560.3864      0.0087482101 
     32000  -10794.629      73.494434     -10721.134      32             3674.4921      0.0087638072 
     33000  -10793.878      75.760486     -10718.118      33             3785.9733      0.008970118  
     34000  -10791.365      77.035651     -10714.33       34             3898.065       0.0089212652 
     35000  -10786.639      74.077695     -10712.562      35             4009.1386      0.009003043  
     36000  -10793.809      74.705355     -10719.104      36             4117.7509      0.0092070567 
     37000  -10789.285      73.350979     -10715.934      37             4226.2158      0.0092195743 
     38000  -10793.867      73.378763     -10720.488      38             4336.0898      0.0091013349 
     39000  -10789.986      74.521368     -10715.465      39             4446.2641      0.0090765241 
     40000  -10792.123      72.438625     -10719.685      40             4555.6081      0.009145455  
     41000  -10791.258      77.413041     -10713.845      41             4664.708       0.0091659065 
     42000  -10794.08       73.385838     -10720.694      42             4773.7376      0.0091718235 
     43000  -10789.632      73.32641      -10716.306      43             4885.1358      0.0089768032 
     44000  -10791.428      75.921903     -10715.506      44             4996.753       0.0089591913 
     45000  -10792.233      76.199902     -10716.034      45             5105.743       0.0091751539 
     46000  -10791.162      72.838756     -10718.323      46             5215.1943      0.0091364871 
     47000  -10791.452      71.889764     -10719.562      47             5325.8718      0.0090352636 
     48000  -10789.645      70.899837     -10718.745      48             5438.3129      0.0088935408 
     49000  -10793.068      76.756401     -10716.312      49             5548.9099      0.0090418375 
     50000  -10789.798      74.299431     -10715.499      50             5658.0041      0.0091663938 
     51000  -10795.477      75.262153     -10720.215      51             5767.7515      0.0091118264 
     52000  -10790.492      79.27793      -10711.214      52             5877.0085      0.0091527362 
     53000  -10792.222      73.084374     -10719.138      53             5987.7465      0.0090303233 
     54000  -10792.51       76.771041     -10715.739      54             6095.8203      0.0092529352 
     55000  -10791.811      77.249117     -10714.562      55             6204.714       0.0091832665 
     56000  -10791.232      73.509771     -10717.722      56             6313.4091      0.0092000513 
     57000  -10787.613      75.570408     -10712.042      57             6421.7917      0.0092265749 
     58000  -10789.322      73.748969     -10715.573      58             6529.836       0.0092554613 
     59000  -10788.582      75.711653     -10712.87       59             6637.5102      0.0092872752 
     60000  -10790.868      71.376772     -10719.491      60             6745.9612      0.0092207528 
     61000  -10790.084      74.066192     -10716.018      61             6854.3794      0.0092235437 
     62000  -10788.392      76.063602     -10712.328      62             6963.0847      0.0091991812 
     63000  -10792.099      74.852452     -10717.246      63             7071.6012      0.009215192  
     64000  -10788.794      73.225369     -10715.569      64             7180.1822      0.0092097158 
     65000  -10792.933      73.866823     -10719.066      65             7288.9721      0.0091920275 
     66000  -10788.853      74.130329     -10714.722      66             7398.263       0.0091498945 
     67000  -10792.182      74.661678     -10717.52       67             7506.5391      0.0092356444 
     68000  -10794.121      74.651746     -10719.469      68             7614.9726      0.0092222447 
     69000  -10789.054      74.956531     -10714.098      69             7724.0999      0.0091636114 
     70000  -10795.182      71.316237     -10723.866      70             7833.1449      0.0091705228 
     71000  -10789.755      75.515174     -10714.24       71             7941.9658      0.0091894071 
     72000  -10792.552      72.010837     -10720.542      72             8050.4365      0.0092190853 
     73000  -10794.376      76.597412     -10717.778      73             8158.8558      0.0092234497 
     74000  -10789.622      73.804772     -10715.817      74             8267.5915      0.0091966121 
     75000  -10791.638      71.240841     -10720.397      75             8376.165       0.0092103467 
     76000  -10792.53       75.738177     -10716.792      76             8484.7543      0.0092090093 
     77000  -10792.943      72.890635     -10720.052      77             8593.3248      0.0092106074 
     78000  -10794.697      75.315797     -10719.381      78             8703.3811      0.0090862556 
     79000  -10792.721      74.637928     -10718.083      79             8811.6417      0.0092369732 
     80000  -10796.49       74.776059     -10721.714      80             8920.237       0.0092085066 
     81000  -10794.311      75.088671     -10719.223      81             9028.9279      0.0092003959 
     82000  -10794.292      75.292064     -10719          82             9138.2418      0.0091479673 
     83000  -10794.975      74.75473      -10720.22       83             9248.2892      0.0090869934 
     84000  -10791.151      77.693414     -10713.458      84             9359.1196      0.0090227975 
     85000  -10794.684      75.923746     -10718.761      85             9469.4601      0.0090628584 
     86000  -10793.206      76.230366     -10716.976      86             9580.6029      0.0089974337 
     87000  -10796.831      75.820833     -10721.011      87             9691.0619      0.0090531327 
     88000  -10789.351      72.845804     -10716.505      88             9803.5144      0.0088926422 
     89000  -10793.76       72.242728     -10721.517      89             9913.6032      0.0090835787 
     90000  -10793.493      76.001393     -10717.492      90             10024.711      0.0090002716 
     91000  -10794.31       74.27292      -10720.037      91             10135.144      0.0090552461 
     92000  -10793.872      75.603942     -10718.268      92             10245.457      0.0090650993 
     93000  -10791.856      75.630878     -10716.225      93             10357.399      0.0089332456 
     94000  -10793.55       74.960213     -10718.589      94             10469.277      0.0089382736 
     95000  -10791.456      76.516707     -10714.939      95             10581.534      0.0089081411 
     96000  -10794.435      74.037988     -10720.397      96             10690.975      0.009137339  
     97000  -10794.178      76.038723     -10718.14       97             10800.219      0.0091538013 
     98000  -10795.316      72.584475     -10722.731      98             10910.995      0.009027259  
     99000  -10790.607      72.921445     -10717.686      99             11022.519      0.0089667019 
    100000  -10793.336      77.866593     -10715.469      100            11134.448      0.0089342397 
    101000  -10794.473      74.394878     -10720.078      101            11244.439      0.0090916266 
    102000  -10791.488      75.947247     -10715.541      102            11353.656      0.0091561118 
    103000  -10792.849      73.762336     -10719.086      103            11464.148      0.0090504187 
    104000  -10793.16       76.892546     -10716.268      104            11575.208      0.0090041279 
    105000  -10793.582      72.555333     -10721.027      105            11686.222      0.0090078506 
    106000  -10792.469      73.652903     -10718.816      106            11796.091      0.0091017245 
    107000  -10794.439      74.471631     -10719.967      107            11906.141      0.0090868163 
    108000  -10790.985      75.353934     -10715.631      108            12016.008      0.0091019458 
    109000  -10793.332      76.041412     -10717.291      109            12125.853      0.009103732  
    110000  -10796.986      75.559447     -10721.426      110            12236.493      0.0090382653 
    111000  -10792.853      76.46667      -10716.386      111            12346.054      0.0091273653 
    112000  -10792.309      71.840225     -10720.469      112            12455.904      0.0091033125 
    113000  -10791.865      74.126307     -10717.739      113            12565.513      0.0091233445 
    114000  -10795.048      70.48493      -10724.563      114            12675.389      0.0091011949 
    115000  -10792.078      74.833044     -10717.245      115            12787.802      0.0088957459 
    116000  -10793.543      71.198868     -10722.344      116            12900.465      0.0088760626 
    117000  -10791.629      76.660981     -10714.968      117            13013.754      0.008826976  
    118000  -10794.622      76.220626     -10718.401      118            13130.566      0.008560707  
    119000  -10794.606      75.846937     -10718.759      119            13253.589      0.0081285949 
    120000  -10790.743      72.47284      -10718.27       120            13373.565      0.0083350295 
    121000  -10797.419      75.301185     -10722.117      121            13492.328      0.008420064  
    122000  -10793.638      76.638638     -10716.999      122            13611.146      0.0084162299 
    123000  -10793.889      73.540963     -10720.348      123            13728.125      0.0085486012 
    124000  -10789.198      75.730504     -10713.467      124            13843.478      0.008669024  
    125000  -10791.71       74.42819      -10717.282      125            13959.959      0.008585122  
    126000  -10791.968      71.850039     -10720.118      126            14076.357      0.0085911686 
    127000  -10792.545      73.705499     -10718.84       127            14193.002      0.0085730187 
    128000  -10792.948      76.976575     -10715.972      128            14310.399      0.0085180948 
    129000  -10793.24       75.163804     -10718.076      129            14427.58       0.008533801  
    130000  -10790.97       77.043918     -10713.926      130            14545.71       0.0084653117 
    131000  -10791.988      73.933516     -10718.055      131            14665.102      0.0083757035 
    132000  -10790.528      78.009288     -10712.518      132            14783.952      0.008414018  
    133000  -10791.479      71.748535     -10719.73       133            14907.963      0.0080637861 
    134000  -10790.811      73.306898     -10717.504      134            15028.033      0.0083284598 
    135000  -10790.486      72.596409     -10717.89       135            15148.533      0.0082987812 
    136000  -10791.296      75.713225     -10715.583      136            15270.648      0.0081889958 
    137000  -10794.393      72.184876     -10722.209      137            15393.577      0.0081347789 
    138000  -10787.681      71.48436      -10716.197      138            15520.372      0.0078867698 
    139000  -10794.435      73.822618     -10720.612      139            15651.179      0.0076448159 
    140000  -10790.962      74.894437     -10716.068      140            15782.62       0.0076079865 
    141000  -10790.99       75.844869     -10715.145      141            15913.426      0.0076448923 
    142000  -10788.837      72.014831     -10716.822      142            16043.134      0.0077096082 
    143000  -10793.298      70.921421     -10722.377      143            16172.786      0.0077129562 
    144000  -10788.881      73.962887     -10714.918      144            16301.945      0.0077424086 
    145000  -10791.984      77.011081     -10714.972      145            16431.514      0.0077178981 
    146000  -10790.361      70.602846     -10719.758      146            16561.047      0.0077200503 
    147000  -10789.7        75.462723     -10714.238      147            16690.013      0.0077539737 
    148000  -10794.226      72.618612     -10721.607      148            16819.618      0.0077157377 
    149000  -10788.534      74.427016     -10714.107      149            16950.681      0.0076299334 
    150000  -10792.122      73.888402     -10718.234      150            17083.19       0.0075466896 
    151000  -10792.771      71.195324     -10721.576      151            17213.382      0.0076809619 
    152000  -10788.447      75.133922     -10713.313      152            17344.038      0.0076536543 
    153000  -10793.627      75.563017     -10718.064      153            17475.195      0.0076244531 
    154000  -10792.452      74.765748     -10717.687      154            17606.509      0.0076153379 
    155000  -10792.458      71.476307     -10720.982      155            17736.263      0.0077068995 
    156000  -10790.537      72.300597     -10718.236      156            17863.029      0.0078885669 
    157000  -10792.415      75.166936     -10717.248      157            17990.998      0.0078143654 
    158000  -10790.516      73.671647     -10716.845      158            18117.965      0.0078760502 
    159000  -10792.64       76.67709      -10715.963      159            18236.329      0.0084485217 
    160000  -10792.561      74.639511     -10717.922      160            18355.527      0.0083894119 
    161000  -10797.342      75.88362      -10721.459      161            18477.728      0.0081832517 
    162000  -10792.111      77.215846     -10714.895      162            18593.679      0.0086243146 
    163000  -10793.794      74.200139     -10719.594      163            18707.888      0.0087559164 
    164000  -10793.292      73.174418     -10720.117      164            18821.531      0.0087994275 
    165000  -10791.128      75.314279     -10715.813      165            18931.484      0.009094847  
    166000  -10794.235      76.789343     -10717.445      166            19040.662      0.009159307  
    167000  -10792.851      75.310611     -10717.54       167            19151.397      0.0090306119 
    168000  -10792.288      73.75241      -10718.535      168            19260.544      0.0091619526 
    169000  -10792.216      71.905381     -10720.311      169            19371.238      0.0090338928 
    170000  -10794.044      73.351701     -10720.692      170            19481.907      0.0090359446 
    171000  -10791.218      77.265351     -10713.952      171            19589.986      0.0092525065 
    172000  -10791.622      72.736326     -10718.885      172            19699.643      0.0091193776 
    173000  -10792.253      76.047194     -10716.206      173            19810.813      0.0089952359 
    174000  -10795.145      76.258025     -10718.887      174            19923.215      0.0088966054 
    175000  -10792.783      74.411479     -10718.371      175            20035.289      0.0089226557 
    176000  -10794.034      71.578264     -10722.455      176            20147.901      0.0088800661 
    177000  -10791.832      75.364877     -10716.467      177            20259.341      0.0089734331 
    178000  -10792.63       72.862053     -10719.768      178            20372.659      0.0088247383 
    179000  -10792.349      76.105979     -10716.244      179            20485.916      0.008829471  
    180000  -10794.659      74.936218     -10719.723      180            20599.959      0.0087686081 
    181000  -10791.623      77.175921     -10714.447      181            20714.031      0.0087664006 
    182000  -10795.212      75.439491     -10719.772      182            20828.025      0.0087723884 
    183000  -10795.705      72.896871     -10722.809      183            20941.411      0.0088193977 
    184000  -10795.03       75.793311     -10719.237      184            21055.859      0.0087376124 
    185000  -10790.668      75.675367     -10714.993      185            21171.495      0.0086478397 
    186000  -10793.013      72.311097     -10720.702      186            21287.693      0.0086060166 
    187000  -10791.651      73.394481     -10718.257      187            21405.445      0.0084923773 
    188000  -10795.068      73.052774     -10722.015      188            21525.573      0.0083245014 
    189000  -10789.418      75.447908     -10713.97       189            21647.203      0.008221612  
    190000  -10794.652      71.908998     -10722.743      190            21769.765      0.0081591651 
    191000  -10794.824      77.886063     -10716.938      191            21892.651      0.0081376316 
    192000  -10793.394      77.232968     -10716.161      192            22015.179      0.0081613648 
    193000  -10789.623      76.004435     -10713.619      193            22139.104      0.0080694455 
    194000  -10793.071      73.178544     -10719.892      194            22262.772      0.0080861121 
    195000  -10791.226      73.618603     -10717.608      195            22386.781      0.0080639883 
    196000  -10793.032      76.706119     -10716.326      196            22511.929      0.0079905128 
    197000  -10795.042      73.116004     -10721.926      197            22635.749      0.008076252  
    198000  -10792.776      74.733071     -10718.043      198            22760.079      0.0080431306 
    199000  -10792.108      73.007635     -10719.1        199            22884.916      0.0080104025 
    200000  -10793.962      77.903983     -10716.058      200            23008.668      0.0080807012 
    201000  -10793.996      72.535344     -10721.461      201            23130.888      0.0081819483 
    202000  -10791.3        72.070796     -10719.229      202            23253.651      0.0081457847 
    203000  -10797.557      76.370142     -10721.187      203            23375.68       0.0081947443 
    204000  -10796.028      76.466442     -10719.561      204            23498.382      0.0081498873 
    205000  -10797.186      76.884392     -10720.301      205            23620.476      0.0081903508 
    206000  -10796.557      74.852698     -10721.704      206            23744.242      0.0080797747 
    207000  -10795.297      79.184267     -10716.113      207            23865.778      0.008228061  
    208000  -10794.822      73.184065     -10721.638      208            23989.244      0.0080993719 
    209000  -10796.525      74.698701     -10721.826      209            24116.744      0.0078431116 
    210000  -10797.029      72.941721     -10724.087      210            24248.623      0.0075827139 
    211000  -10800.487      75.657139     -10724.83       211            24378.707      0.0076873486 
    212000  -10794.435      73.480949     -10720.954      212            24509.158      0.0076657236 
    213000  -10793.878      68.452192     -10725.426      213            24638.539      0.0077290816 
    214000  -10795.938      74.315989     -10721.622      214            24767.713      0.0077415174 
    215000  -10796.977      77.016719     -10719.96       215            24895.471      0.0078273036 
    216000  -10798.434      72.780853     -10725.653      216            25020.513      0.0079972905 
    217000  -10793.028      71.057701     -10721.97       217            25139.949      0.0083727292 
    218000  -10793.368      76.282702     -10717.085      218            25255.934      0.0086217853 
    219000  -10796.765      73.424895     -10723.34       219            25370.517      0.0087273304 
    220000  -10794.636      74.148787     -10720.488      220            25481.157      0.009038291  
    221000  -10794.38       72.970353     -10721.41       221            25590.644      0.0091334792 
    222000  -10797.376      76.653742     -10720.722      222            25700.144      0.009132447  
    223000  -10793.604      73.965222     -10719.638      223            25809.334      0.0091583423 
    224000  -10799.087      71.567013     -10727.52       224            25917.869      0.0092135725 
    225000  -10794.846      75.558674     -10719.288      225            26027.286      0.0091393756 
    226000  -10796.032      74.214164     -10721.818      226            26136.241      0.0091780894 
    227000  -10795.224      73.104389     -10722.12       227            26244.812      0.0092105972 
    228000  -10794.099      76.022719     -10718.076      228            26353.672      0.0091861085 
    229000  -10795.081      72.920203     -10722.161      229            26462.307      0.0092051409 
    230000  -10796.13       73.84121      -10722.289      230            26571.488      0.0091590834 
    231000  -10791.646      74.056706     -10717.589      231            26680.733      0.0091537228 
    232000  -10799.221      73.666067     -10725.554      232            26789.408      0.0092017994 
    233000  -10796.046      73.876961     -10722.169      233            26898.606      0.0091576794 
    234000  -10794.537      76.124026     -10718.413      234            27007.837      0.009154844  
    235000  -10796.157      73.835709     -10722.321      235            27117.672      0.0091045685 
    236000  -10793.225      75.019429     -10718.206      236            27228.678      0.0090085485 
    237000  -10793.101      72.454086     -10720.647      237            27340.033      0.0089802557 
    238000  -10797.578      74.010315     -10723.568      238            27451.455      0.0089749002 
    239000  -10793.178      74.871762     -10718.307      239            27563.755      0.0089047552 
    240000  -10796.593      71.344015     -10725.249      240            27675.97       0.0089114858 
    241000  -10793.61       73.916829     -10719.693      241            27787.983      0.0089275294 
    242000  -10792.297      75.500729     -10716.796      242            27898.387      0.0090575951 
    243000  -10796.208      73.306281     -10722.902      243            28007.506      0.0091643606 
    244000  -10793.439      75.313866     -10718.125      244            28116.835      0.0091466374 
    245000  -10795.534      73.638276     -10721.895      245            28226.06       0.0091554418 
    246000  -10792.722      76.676209     -10716.046      246            28335.472      0.0091398094 
    247000  -10798.992      75.712997     -10723.279      247            28445.166      0.0091162277 
    248000  -10796.284      72.663511     -10723.62       248            28554.89       0.0091137895 
    249000  -10796.342      76.640874     -10719.701      249            28664.089      0.0091575701 
    250000  -10794.49       75.739971     -10718.75       250            28776.123      0.0089258901 
    251000  -10798.39       74.086853     -10724.303      251            28890.019      0.0087799097 
    252000  -10792.788      75.433808     -10717.354      252            29009.338      0.0083809002 
    253000  -10797.66       74.100314     -10723.56       253            29129.794      0.0083018258 
    254000  -10794.764      79.816629     -10714.947      254            29257.148      0.0078521007 
    255000  -10796.516      74.619839     -10721.896      255            29386.772      0.0077146107 
    256000  -10793.228      74.580615     -10718.647      256            29518.369      0.0075989637 
    257000  -10793.682      72.385301     -10721.296      257            29649.026      0.0076536384 
    258000  -10796.877      72.754924     -10724.122      258            29781.169      0.0075675519 
    259000  -10794.004      76.309802     -10717.694      259            29913.287      0.0075690006 
    260000  -10793.782      73.072659     -10720.71       260            30043.923      0.007654831  
    261000  -10795.952      74.056674     -10721.895      261            30177.887      0.0074647317 
    262000  -10794.21       74.065049     -10720.145      262            30311.276      0.0074968737 
    263000  -10795.905      78.9454       -10716.959      263            30444.842      0.0074869326 
    264000  -10796.137      74.002522     -10722.134      264            30578.901      0.0074593918 
    265000  -10794.596      73.478084     -10721.118      265            30711.84       0.007522241  
    266000  -10795.449      72.446877     -10723.003      266            30845.114      0.0075033578 
    267000  -10793.422      76.699856     -10716.722      267            30978.232      0.0075121317 
    268000  -10795.208      73.120535     -10722.087      268            31111.293      0.0075153268 
    269000  -10792.241      71.211371     -10721.029      269            31241.469      0.0076819179 
    270000  -10795.012      71.195732     -10723.817      270            31369.831      0.0077904747 
    271000  -10790.676      75.15871      -10715.517      271            31495.2        0.0079764057 
    272000  -10796.033      72.888147     -10723.145      272            31617.417      0.0081821704 
    273000  -10793.266      75.110499     -10718.156      273            31739.839      0.0081684761 
    274000  -10797.812      73.000221     -10724.812      274            31857.562      0.0084945176 
    275000  -10797.487      75.741472     -10721.745      275            31971.675      0.0087632645 
    276000  -10793.092      76.425028     -10716.667      276            32084.242      0.008883558  
    277000  -10795.568      73.095439     -10722.473      277            32194.271      0.0090885892 
    278000  -10795.918      77.364826     -10718.554      278            32304.6        0.009063782  
    279000  -10795.481      72.395384     -10723.085      279            32414.276      0.0091177073 
    280000  -10795.602      73.784928     -10721.817      280            32523.911      0.009121224  
    281000  -10791.24       77.632862     -10713.607      281            32635.476      0.0089634106 
    282000  -10796.699      74.332259     -10722.367      282            32746.982      0.008968095  
    283000  -10794.891      74.633602     -10720.258      283            32860.492      0.0088097728 
    284000  -10799.422      77.939595     -10721.483      284            32974.383      0.0087803722 
    285000  -10796.698      74.035437     -10722.662      285            33092.119      0.008493525  
    286000  -10793.376      75.605574     -10717.77       286            33213.833      0.008216014  
    287000  -10798.766      74.151455     -10724.615      287            33343.978      0.0076837196 
    288000  -10796.526      75.525178     -10721.001      288            33471.599      0.0078356969 
    289000  -10798.35       74.698608     -10723.651      289            33602.174      0.0076584384 
    290000  -10794.007      75.679785     -10718.327      290            33733.361      0.0076226981 
    291000  -10794.546      76.954948     -10717.591      291            33864.382      0.0076323867 
    292000  -10795.019      72.963782     -10722.055      292            33998.099      0.0074784621 
    293000  -10791.863      80.240485     -10711.622      293            34131.881      0.0074748555 
    294000  -10796.799      73.808444     -10722.991      294            34265.328      0.0074936287 
    295000  -10797.873      78.639805     -10719.234      295            34400.486      0.0073987493 
    296000  -10793.045      71.033657     -10722.011      296            34535.736      0.0073936988 
    297000  -10796.435      75.040032     -10721.395      297            34669.982      0.0074490004 
    298000  -10792.183      76.927337     -10715.255      298            34803.168      0.0075083273 
    299000  -10798.449      75.70157      -10722.748      299            34934.18       0.0076328549 
    300000  -10797.904      74.43952      -10723.465      300            35061.593      0.0078485042 
    301000  -10798.506      73.939968     -10724.566      301            35191.145      0.0077189211 
    302000  -10794.473      74.496179     -10719.977      302            35326.411      0.0073928287 
    303000  -10795.041      73.227224     -10721.813      303            35461.882      0.007381655  
    304000  -10789.198      76.344915     -10712.853      304            35598.282      0.0073313818 
    305000  -10794.623      71.872018     -10722.751      305            35735.635      0.0072805275 
    306000  -10793.65       74.677858     -10718.972      306            35867.644      0.0075752224 
    307000  -10795.228      73.972616     -10721.256      307            35999.076      0.0076084962 
    308000  -10795.263      73.697799     -10721.565      308            36123.645      0.0080276538 
    309000  -10796.964      74.618259     -10722.346      309            36244.732      0.0082585386 
    310000  -10796.506      74.126078     -10722.38       310            36361.773      0.0085440479 
    311000  -10790.447      75.172666     -10715.274      311            36474.26       0.0088898967 
    312000  -10796.134      74.746502     -10721.388      312            36584.544      0.0090674781 
    313000  -10792.208      75.293138     -10716.915      313            36694.541      0.0090911595 
    314000  -10795.795      74.40418      -10721.391      314            36805.338      0.0090255436 
    315000  -10793.413      72.759935     -10720.653      315            36915.253      0.009097912  
    316000  -10795.673      75.385731     -10720.287      316            37025.332      0.0090843769 
    317000  -10795.155      75.176975     -10719.978      317            37135.492      0.0090777711 
    318000  -10797.394      72.299358     -10725.094      318            37245.028      0.009129362  
    319000  -10793.648      72.982235     -10720.666      319            37356.201      0.0089950441 
    320000  -10796.182      72.724224     -10723.458      320            37466.31       0.0090818436 
    321000  -10793.965      76.504037     -10717.461      321            37577.686      0.0089786246 
    322000  -10795.586      72.692672     -10722.893      322            37690.44       0.0088688761 
    323000  -10795.023      73.174116     -10721.849      323            37802.958      0.0088874725 
    324000  -10796.621      78.6542       -10717.966      324            37918.357      0.0086655421 
    325000  -10797.119      75.495708     -10721.623      325            38036.06       0.0084959951 
    326000  -10795.328      74.998181     -10720.329      326            38159.811      0.0080807238 
    327000  -10798.847      76.038051     -10722.809      327            38286.497      0.0078935678 
    328000  -10795.312      74.628494     -10720.683      328            38415.73       0.0077379323 
    329000  -10795.071      72.738058     -10722.333      329            38542.3        0.0079007664 
    330000  -10796.391      73.620421     -10722.771      330            38668.999      0.0078927467 
    331000  -10795.127      75.850402     -10719.277      331            38793.562      0.0080280617 
    332000  -10797.793      74.618714     -10723.174      332            38920.852      0.0078560519 
    333000  -10796.34       74.665487     -10721.675      333            39048.509      0.0078334759 
    334000  -10796.155      74.259667     -10721.896      334            39177.976      0.0077239885 
    335000  -10795.464      73.142713     -10722.321      335            39307.24       0.007736129  
    336000  -10795.825      75.678619     -10720.146      336            39435.49       0.0077972662 
    337000  -10797.09       74.392403     -10722.697      337            39565.067      0.0077174245 
    338000  -10794.63       73.02707      -10721.603      338            39691.528      0.0079075946 
    339000  -10790.528      77.058956     -10713.469      339            39814.354      0.0081415861 
    340000  -10794.929      73.698134     -10721.231      340            39935.004      0.0082883964 
    341000  -10794.172      73.078186     -10721.094      341            40051.077      0.0086152737 
    342000  -10790.877      74.297068     -10716.58       342            40162.403      0.0089826625 
    343000  -10793.796      72.440777     -10721.356      343            40271.508      0.0091654302 
    344000  -10792.532      74.735541     -10717.797      344            40381.13       0.0091222913 
    345000  -10795.032      78.906087     -10716.126      345            40489.276      0.0092467268 
    346000  -10798.541      77.13485      -10721.406      346            40597.162      0.0092690699 
    347000  -10794.886      73.982404     -10720.904      347            40704.874      0.0092840501 
    348000  -10796.451      74.432227     -10722.019      348            40812.773      0.0092679161 
    349000  -10795.213      73.263471     -10721.95       349            40920.798      0.009257118  
    350000  -10796.269      75.006367     -10721.262      350            41030.457      0.0091191849 
    351000  -10795.052      75.976073     -10719.076      351            41141.013      0.009045142  
    352000  -10794.048      71.382632     -10722.665      352            41251.506      0.0090503829 
    353000  -10792.807      71.282884     -10721.524      353            41363.557      0.0089245087 
    354000  -10799.798      73.253015     -10726.545      354            41475.381      0.0089426004 
    355000  -10797.323      73.162376     -10724.161      355            41587.238      0.0089399846 
    356000  -10792.99       76.573616     -10716.416      356            41698.233      0.0090094097 
    357000  -10796.451      73.097304     -10723.354      357            41806.717      0.0092179353 
    358000  -10795.951      73.093363     -10722.857      358            41914.692      0.0092614113 
    359000  -10796.295      74.397844     -10721.897      359            42022.877      0.0092434582 
    360000  -10793.69       71.777418     -10721.913      360            42131.015      0.0092474127 
    361000  -10797.267      72.167531     -10725.099      361            42239.303      0.0092346162 
    362000  -10794.448      72.895212     -10721.553      362            42347.011      0.0092844001 
    363000  -10794.256      74.87612      -10719.38       363            42454.819      0.009275784  
    364000  -10794.618      73.333042     -10721.285      364            42563.188      0.0092277045 
    365000  -10793.695      77.767443     -10715.928      365            42672.732      0.0091287374 
    366000  -10791.838      74.399663     -10717.438      366            42783.513      0.0090267929 
    367000  -10798.577      70.385206     -10728.191      367            42894.179      0.0090362396 
    368000  -10793.167      74.529228     -10718.638      368            43003.534      0.0091444976 
    369000  -10793.623      76.749365     -10716.874      369            43112.453      0.0091811453 
    370000  -10794.881      72.292852     -10722.588      370            43221.671      0.0091560197 
    371000  -10791.534      74.766492     -10716.768      371            43331.463      0.0091080953 
    372000  -10793.822      70.374359     -10723.448      372            43441.946      0.0090512197 
    373000  -10791.684      75.645901     -10716.038      373            43553.676      0.0089501346 
    374000  -10797.089      73.405271     -10723.684      374            43665.492      0.0089432269 
    375000  -10794.525      74.027236     -10720.498      375            43776.352      0.0090204291 
    376000  -10795.683      75.886292     -10719.797      376            43887.156      0.0090249223 
    377000  -10797.181      73.805094     -10723.376      377            44000.04       0.0088586653 
    378000  -10793.127      75.842588     -10717.285      378            44114.088      0.0087682072 
    379000  -10796.213      74.170536     -10722.043      379            44226.909      0.0088636557 
    380000  -10794.355      75.730097     -10718.625      380            44342.209      0.0086730129 
    381000  -10792.935      74.153532     -10718.781      381            44455.725      0.0088092942 
    382000  -10797.255      75.733149     -10721.522      382            44570.625      0.0087032682 
    383000  -10795.264      72.622206     -10722.642      383            44682.348      0.0089506785 
    384000  -10793.235      74.0728       -10719.162      384            44795.627      0.0088277739 
    385000  -10791.008      72.968003     -10718.04       385            44909.748      0.0087625823 
    386000  -10800.619      74.359852     -10726.26       386            45023.473      0.0087931639 
    387000  -10792.521      73.356425     -10719.165      387            45138.061      0.00872691   
    388000  -10793.42       71.542983     -10721.877      388            45254.397      0.0085958441 
    389000  -10795.598      73.742688     -10721.855      389            45371.525      0.0085376195 
    390000  -10798.944      76.301756     -10722.642      390            45487.767      0.0086027822 
    391000  -10798.319      76.103527     -10722.216      391            45602.892      0.0086862128 
    392000  -10790.631      74.026659     -10716.604      392            45717.933      0.0086925569 
    393000  -10798.959      74.822518     -10724.136      393            45833.504      0.0086526652 
    394000  -10794.807      74.3388       -10720.468      394            45953.114      0.0083604655 
    395000  -10795.975      73.664779     -10722.31       395            46074.313      0.008250949  
    396000  -10803.192      72.421811     -10730.77       396            46198.006      0.0080845059 
    397000  -10793.924      73.30524      -10720.619      397            46322.763      0.0080155871 
    398000  -10795.948      77.422851     -10718.526      398            46449.944      0.007862811  
    399000  -10797.059      74.116894     -10722.942      399            46575.375      0.007972527  
    400000  -10794.301      76.56284      -10717.738      400            46699.811      0.0080362459 
    401000  -10798.694      75.858683     -10722.836      401            46825.755      0.007940036  
    402000  -10793.62       75.364895     -10718.256      402            46950.928      0.0079889682 
    403000  -10796.837      76.770431     -10720.067      403            47077.077      0.0079270905 
    404000  -10796.577      72.346775     -10724.23       404            47203.14       0.0079325649 
    405000  -10795.209      74.842033     -10720.367      405            47332.517      0.0077293334 
    406000  -10798.355      77.11836      -10721.237      406            47462.016      0.0077220826 
    407000  -10790.631      75.140562     -10715.49       407            47592.808      0.0076457274 
    408000  -10795.459      74.85961      -10720.6        408            47724.546      0.0075908153 
    409000  -10796.585      75.974378     -10720.61       409            47856.72       0.0075658153 
    410000  -10793.497      74.176765     -10719.32       410            47990.321      0.0074849318 
    411000  -10794.899      74.553893     -10720.345      411            48123.122      0.0075301012 
    412000  -10796.231      71.514132     -10724.717      412            48257.229      0.0074567193 
    413000  -10793.785      75.623485     -10718.161      413            48392.44       0.0073958353 
    414000  -10793.69       72.55855      -10721.132      414            48528.193      0.0073663242 
    415000  -10793.999      75.035624     -10718.963      415            48665.789      0.0072676402 
    416000  -10793.911      72.515093     -10721.396      416            48801.318      0.0073785133 
    417000  -10793.248      72.156499     -10721.092      417            48935.978      0.007426121  
    418000  -10793.686      74.195814     -10719.491      418            49069.4        0.0074950254 
    419000  -10795.442      74.628914     -10720.813      419            49202.584      0.0075084006 
    420000  -10797.208      74.812714     -10722.395      420            49335.61       0.007517288  
    421000  -10795.187      74.050009     -10721.137      421            49468.907      0.0075020501 
    422000  -10794.135      74.592194     -10719.543      422            49603.321      0.0074397131 
    423000  -10794.938      72.753188     -10722.184      423            49739.561      0.0073399926 
    424000  -10791.507      75.482577     -10716.024      424            49874.888      0.007389505  
    425000  -10795.354      72.967648     -10722.386      425            50011.48       0.0073210547 
    426000  -10792.446      74.504396     -10717.942      426            50146.939      0.0073823088 
    427000  -10796.937      75.297147     -10721.64       427            50284.015      0.0072952523 
    428000  -10796.89       74.027355     -10722.862      428            50420.688      0.0073167284 
    429000  -10795.995      74.539147     -10721.456      429            50559.223      0.0072184105 
    430000  -10793.93       72.843216     -10721.087      430            50696.825      0.0072673226 
    431000  -10794.193      76.926383     -10717.267      431            50834.802      0.007247579  
    432000  -10796.949      75.635914     -10721.313      432            50971.418      0.0073197941 
    433000  -10794.008      75.65975      -10718.348      433            51105.846      0.0074389044 
    434000  -10796.106      72.186658     -10723.92       434            51239.775      0.0074666635 
    435000  -10794.103      75.012095     -10719.091      435            51375.085      0.0073904215 
    436000  -10797.331      71.138368     -10726.193      436            51509.534      0.0074377736 
    437000  -10792.079      73.567701     -10718.511      437            51645.517      0.0073538399 
    438000  -10796.053      70.656791     -10725.396      438            51783.179      0.0072642025 
    439000  -10792.123      71.969747     -10720.153      439            51920.865      0.0072628785 
    440000  -10798.064      71.678581     -10726.386      440            52055.832      0.007409236  
    441000  -10795.44       74.498261     -10720.942      441            52189.119      0.0075025833 
    442000  -10794.994      77.882116     -10717.112      442            52321.885      0.0075320488 
    443000  -10795.463      75.079874     -10720.383      443            52454.129      0.0075617703 
    444000  -10797.058      71.667652     -10725.391      444            52585.554      0.0076089072 
    445000  -10797.258      74.258684     -10722.999      445            52718.568      0.0075180031 
    446000  -10799.545      76.394924     -10723.15       446            52851.954      0.0074970486 
    447000  -10798.042      74.586608     -10723.455      447            52988.809      0.0073070147 
    448000  -10795.072      75.479284     -10719.593      448            53126.08       0.007284855  
    449000  -10797.81       77.4232       -10720.387      449            53260.76       0.0074250352 
    450000  -10795.063      75.112035     -10719.951      450            53393.013      0.0075612472 
    451000  -10798.452      75.439473     -10723.013      451            53524.511      0.0076046985 
    452000  -10793.864      74.539261     -10719.324      452            53657.805      0.0075021699 
    453000  -10795.234      74.794778     -10720.439      453            53789.198      0.0076107865 
    454000  -10796.535      72.859966     -10723.675      454            53921.371      0.0075658488 
    455000  -10794.808      75.625973     -10719.182      455            54052.98       0.0075982628 
    456000  -10800.117      73.437657     -10726.68       456            54184.854      0.0075829917 
    457000  -10797.5        73.335226     -10724.164      457            54311.642      0.0078871484 
    458000  -10795.911      74.678811     -10721.232      458            54437.59       0.0079398301 
    459000  -10797.355      76.029063     -10721.326      459            54559.891      0.0081765496 
    460000  -10797.191      72.402558     -10724.789      460            54686.263      0.0079131275 
    461000  -10795.091      74.233333     -10720.858      461            54812.772      0.0079045818 
    462000  -10795.741      72.180311     -10723.56       462            54937.267      0.0080324317 
    463000  -10796.092      76.062144     -10720.03       463            55060.496      0.0081150071 
    464000  -10798.973      75.597237     -10723.376      464            55179.336      0.0084146366 
    465000  -10794.752      76.140018     -10718.612      465            55295.876      0.008580725  
    466000  -10795.018      72.820725     -10722.198      466            55412.139      0.008601207  
    467000  -10794.078      75.941633     -10718.136      467            55527.411      0.008675151  
    468000  -10796.237      75.537907     -10720.699      468            55643.747      0.0085957962 
    469000  -10796.493      78.559846     -10717.933      469            55758.768      0.008694046  
    470000  -10797.901      72.03941      -10725.861      470            55871.669      0.0088572934 
    471000  -10794.395      74.804806     -10719.59       471            55985.105      0.0088155689 
    472000  -10797.838      73.299524     -10724.538      472            56098.557      0.0088142862 
    473000  -10794.463      75.296296     -10719.167      473            56210.812      0.0089082706 
    474000  -10796.577      74.35347      -10722.224      474            56324.028      0.0088326734 
    475000  -10795.729      76.032509     -10719.697      475            56436.332      0.0089044386 
    476000  -10795.582      73.731424     -10721.851      476            56548.129      0.0089447713 
    477000  -10795.257      74.087287     -10721.169      477            56658.302      0.0090766275 
    478000  -10797.063      73.940992     -10723.122      478            56767.819      0.009131036  
    479000  -10798.784      77.450442     -10721.333      479            56877.603      0.0091087868 
    480000  -10797.415      76.481005     -10720.934      480            56986.268      0.0092025607 
    481000  -10795.817      76.208645     -10719.609      481            57094.961      0.0092002559 
    482000  -10799.514      73.293579     -10726.221      482            57206.95       0.0089294325 
    483000  -10793.835      76.451247     -10717.383      483            57318.666      0.008951255  
    484000  -10796.262      72.950178     -10723.312      484            57429.794      0.0089986656 
    485000  -10795.841      75.435199     -10720.406      485            57539.574      0.0091091291 
    486000  -10798.663      72.418122     -10726.245      486            57648.973      0.0091408655 
    487000  -10792.575      74.305482     -10718.269      487            57758.513      0.0091290684 
    488000  -10797.174      73.320216     -10723.854      488            57867.637      0.0091639016 
    489000  -10794.494      74.570697     -10719.924      489            57978.856      0.0089912513 
    490000  -10796.959      72.512089     -10724.447      490            58090.146      0.0089855214 
    491000  -10795.234      74.789506     -10720.445      491            58200.939      0.0090258398 
    492000  -10795.776      77.514932     -10718.261      492            58311.228      0.0090670794 
    493000  -10797.678      73.13291      -10724.545      493            58421.538      0.00906537   
    494000  -10795.884      75.54985      -10720.334      494            58532.488      0.0090130701 
    495000  -10799.402      73.450917     -10725.951      495            58643.797      0.0089840363 
    496000  -10792.856      74.035811     -10718.82       496            58755.569      0.0089467894 
    497000  -10795.526      73.71644      -10721.809      497            58866.74       0.0089950813 
    498000  -10796.192      75.343861     -10720.848      498            58977.413      0.0090356795 
    499000  -10794.416      78.729392     -10715.687      499            59086.108      0.0092000419 
    500000  -10797.577      76.158341     -10721.419      500            59195.42       0.0091481624 
    501000  -10796.303      75.448601     -10720.854      501            59305.875      0.0090534359 
    502000  -10792.4        72.442675     -10719.957      502            59416.206      0.0090636015 
    503000  -10796.641      73.767275     -10722.874      503            59527.906      0.0089525614 
    504000  -10795.98       74.880887     -10721.099      504            59639.001      0.0090013503 
    505000  -10794.984      75.290671     -10719.693      505            59748.654      0.0091196136 
    506000  -10796.314      71.944108     -10724.369      506            59858.19       0.0091294457 
    507000  -10794.1        71.871894     -10722.228      507            59968.283      0.0090832407 
    508000  -10796.741      75.417909     -10721.323      508            60079.002      0.009031898  
    509000  -10794.87       75.214306     -10719.656      509            60190.671      0.0089549952 
    510000  -10793.691      72.964185     -10720.727      510            60302.761      0.0089214062 
    511000  -10796.863      74.302289     -10722.56       511            60414.467      0.0089521022 
    512000  -10794.417      75.030366     -10719.386      512            60525.855      0.0089775968 
    513000  -10797.774      75.405956     -10722.368      513            60637.744      0.008937448  
    514000  -10794.599      78.211269     -10716.388      514            60749.509      0.008947307  
    515000  -10796.324      72.832225     -10723.491      515            60860.115      0.0090410983 
    516000  -10797.96       72.275735     -10725.684      516            60970.941      0.0090231458 
    517000  -10793.081      77.46173      -10715.619      517            61082.005      0.0090038883 
    518000  -10797.142      71.806911     -10725.335      518            61193.828      0.0089426347 
    519000  -10795.812      77.45659      -10718.356      519            61305.333      0.008968265  
    520000  -10798.661      76.174851     -10722.486      520            61416.727      0.0089770914 
    521000  -10798.92       73.107104     -10725.813      521            61526.718      0.0090916968 
    522000  -10795.817      75.339581     -10720.478      522            61636.014      0.0091494548 
    523000  -10797.072      73.297267     -10723.775      523            61745.398      0.0091421188 
    524000  -10797.216      75.166699     -10722.049      524            61854.599      0.0091573674 
    525000  -10792.735      70.802338     -10721.932      525            61964.995      0.0090583401 
    526000  -10795.646      73.843608     -10721.802      526            62075.193      0.0090745811 
    527000  -10796.896      75.904932     -10720.991      527            62186.488      0.0089851338 
    528000  -10795.34       72.981501     -10722.358      528            62297.166      0.00903522   
    529000  -10800.734      77.084717     -10723.65       529            62407.682      0.0090484122 
    530000  -10795.943      76.460085     -10719.483      530            62517.838      0.0090780688 
    531000  -10797.368      76.759286     -10720.608      531            62628.823      0.0090102667 
    532000  -10800.105      79.131306     -10720.973      532            62739.214      0.0090586615 
    533000  -10799.128      74.068302     -10725.06       533            62849.799      0.0090428015 
    534000  -10798.648      73.877791     -10724.77       534            62960.505      0.0090329621 
    535000  -10793.779      73.088849     -10720.69       535            63071.93       0.0089746599 
    536000  -10799.227      74.966235     -10724.26       536            63183.886      0.0089320694 
    537000  -10796.113      73.533298     -10722.58       537            63294.342      0.0090533705 
    538000  -10794.757      74.168588     -10720.588      538            63404.035      0.0091163241 
    539000  -10798.278      74.550868     -10723.727      539            63513.303      0.0091518458 
    540000  -10795.169      77.239172     -10717.93       540            63624.028      0.0090314211 
    541000  -10795.906      73.524116     -10722.382      541            63735.442      0.0089755058 
    542000  -10797.393      76.348362     -10721.045      542            63849.69       0.0087528851 
    543000  -10796.462      73.315713     -10723.146      543            63965.655      0.0086232667 
    544000  -10794.851      78.000434     -10716.851      544            64087.398      0.0082140504 
    545000  -10793.983      73.72001      -10720.263      545            64211.091      0.0080845515 
    546000  -10796.566      73.671716     -10722.894      546            64339.186      0.0078066779 
    547000  -10796.379      76.996915     -10719.382      547            64471.655      0.0075489506 
    548000  -10795.473      73.456785     -10722.017      548            64607.476      0.0073626235 
    549000  -10799.845      73.841419     -10726.004      549            64743.546      0.0073491285 
    550000  -10795.163      75.187518     -10719.975      550            64874.553      0.0076332207 
    551000  -10799.433      75.126975     -10724.306      551            65006.419      0.0075834412 
    552000  -10798.711      73.609549     -10725.102      552            65138.998      0.0075426687 
    553000  -10795.294      78.15886      -10717.135      553            65276.101      0.0072937789 
    554000  -10797.994      75.601346     -10722.393      554            65414.333      0.0072342085 
    555000  -10794.644      74.601222     -10720.042      555            65551.78       0.0072755585 
    556000  -10794.298      74.985339     -10719.313      556            65687.12       0.0073888116 
    557000  -10798.286      74.881076     -10723.405      557            65821.774      0.0074264352 
    558000  -10793.978      75.582499     -10718.396      558            65956.282      0.0074345058 
    559000  -10795.339      71.651412     -10723.687      559            66090.253      0.00746429   
    560000  -10795.543      75.064566     -10720.478      560            66223.57       0.0075009057 
    561000  -10795.452      75.615983     -10719.836      561            66355.907      0.0075564617 
    562000  -10800.073      74.565682     -10725.508      562            66489.326      0.007495216  
    563000  -10797.644      75.016468     -10722.628      563            66624.104      0.0074195835 
    564000  -10798.774      73.585135     -10725.189      564            66759.164      0.0074041123 
    565000  -10795.71       73.763972     -10721.946      565            66889.674      0.0076622514 
    566000  -10795.899      73.228551     -10722.67       566            67022.96       0.0075026838 
    567000  -10799.741      77.589951     -10722.151      567            67158.16       0.007396431  
    568000  -10801.235      76.633563     -10724.601      568            67292.875      0.0074230716 
    569000  -10795.751      73.341753     -10722.409      569            67427.176      0.0074459606 
    570000  -10795.952      72.503195     -10723.448      570            67560.521      0.007499346  
    571000  -10795.208      73.226517     -10721.982      571            67694.262      0.0074771546 
    572000  -10795.494      74.74477      -10720.749      572            67827.866      0.0074848031 
    573000  -10796.368      74.07247      -10722.295      573            67963.43       0.0073765823 
    574000  -10792.81       74.568538     -10718.241      574            68098.942      0.0073794075 
    575000  -10794.355      74.539113     -10719.816      575            68238.998      0.0071400262 
    576000  -10795.014      72.527696     -10722.486      576            68376.176      0.0072898151 
    577000  -10796.134      74.045376     -10722.089      577            68510.96       0.0074192448 
    578000  -10797.435      77.508286     -10719.927      578            68646.759      0.0073638435 
    579000  -10800.006      72.738103     -10727.268      579            68781.125      0.0074423388 
    580000  -10795.896      75.98404      -10719.912      580            68915.942      0.0074174687 
    581000  -10797.036      74.838149     -10722.198      581            69049.694      0.0074764961 
    582000  -10798.632      72.081978     -10726.55       582            69183.252      0.0074874152 
    583000  -10797.739      74.672177     -10723.067      583            69316.15       0.0075245743 
    584000  -10793.029      74.351306     -10718.677      584            69449.3        0.0075103316 
    585000  -10796.131      76.530484     -10719.6        585            69580.871      0.007600468  
    586000  -10794.519      74.428349     -10720.091      586            69712.173      0.0076159837 
    587000  -10794.544      74.13104      -10720.413      587            69843.588      0.0076095313 
    588000  -10798.183      77.616621     -10720.566      588            69974.397      0.0076447118 
    589000  -10797.34       73.714113     -10723.626      589            70103.501      0.0077456846 
    590000  -10796.133      76.636792     -10719.496      590            70230.75       0.0078585828 
    591000  -10794.322      73.385167     -10720.936      591            70356.688      0.0079404353 
    592000  -10793.682      73.868933     -10719.813      592            70482.909      0.0079226212 
    593000  -10794.861      76.024139     -10718.837      593            70607.966      0.0079963642 
    594000  -10795.517      72.238354     -10723.279      594            70732.631      0.0080214739 
    595000  -10795.36       74.694413     -10720.666      595            70856.273      0.0080878732 
    596000  -10795.745      76.501219     -10719.244      596            70980.561      0.0080458318 
    597000  -10796.894      74.743165     -10722.151      597            71098.142      0.0085048009 
    598000  -10794.06       76.603047     -10717.457      598            71213.961      0.0086341413 
    599000  -10793.993      72.981653     -10721.011      599            71331.504      0.0085075468 
    600000  -10793.557      76.759558     -10716.797      600            71445.501      0.0087721398 
    601000  -10793.342      74.564088     -10718.778      601            71556.884      0.0089780543 
    602000  -10793.964      74.22125      -10719.743      602            71666.901      0.0090894368 
    603000  -10792.039      74.139774     -10717.899      603            71776.04       0.0091626395 
    604000  -10794.877      75.87174      -10719.005      604            71886.86       0.0090236296 
    605000  -10791.166      73.231891     -10717.934      605            72000.26       0.0088183908 
    606000  -10792.087      73.018314     -10719.069      606            72112.348      0.0089215153 
    607000  -10789.82       73.941649     -10715.879      607            72224.285      0.0089336075 
    608000  -10797.291      76.719709     -10720.571      608            72333.41       0.0091638317 
    609000  -10789.656      74.268847     -10715.388      609            72441.616      0.0092416066 
    610000  -10793.34       72.697647     -10720.642      610            72550.37       0.0091951007 
    611000  -10793.207      73.423685     -10719.783      611            72658.201      0.0092737728 
    612000  -10789.994      73.644717     -10716.349      612            72768.368      0.009077151  
    613000  -10791.935      75.809166     -10716.126      613            72878.044      0.0091177601 
    614000  -10793.551      72.832506     -10720.718      614            72988.474      0.0090555073 
    615000  -10789.106      75.633532     -10713.472      615            73100.257      0.0089458991 
    616000  -10794.407      74.269067     -10720.138      616            73210.856      0.009041685  
    617000  -10789.103      72.986699     -10716.116      617            73319.235      0.0092268783 
    618000  -10793.399      74.88065      -10718.518      618            73429.393      0.0090778502 
    619000  -10794.823      74.038981     -10720.784      619            73537.971      0.0092099157 
    620000  -10790.795      74.944711     -10715.851      620            73646.115      0.009246947  
    621000  -10795.205      74.002032     -10721.203      621            73754.945      0.0091886221 
    622000  -10790.973      75.297856     -10715.675      622            73864.119      0.0091597427 
    623000  -10795.554      75.306931     -10720.247      623            73974.436      0.0090647622 
    624000  -10794.257      75.479349     -10718.778      624            74085.559      0.0089990513 
    625000  -10793.979      74.887562     -10719.091      625            74195.344      0.0091086763 
    626000  -10796.552      73.086939     -10723.465      626            74304.319      0.0091764321 
    627000  -10798.545      79.477726     -10719.067      627            74412.971      0.0092036989 
    628000  -10795.595      72.622368     -10722.972      628            74521.505      0.0092136929 
    629000  -10795.06       74.755011     -10720.305      629            74630.634      0.0091634831 
    630000  -10795.701      72.688333     -10723.013      630            74740.044      0.0091399307 
    631000  -10795.902      74.304509     -10721.598      631            74848.86       0.0091898511 
    632000  -10796.569      72.58183      -10723.987      632            74958.586      0.0091135862 
    633000  -10796.747      73.327776     -10723.419      633            75069.73       0.0089973306 
    634000  -10794.613      72.83719      -10721.776      634            75182.331      0.0088809534 
    635000  -10793.028      75.320415     -10717.707      635            75294.611      0.0089062474 
    636000  -10796.686      74.699541     -10721.986      636            75405.783      0.0089950948 
    637000  -10793.956      73.288378     -10720.667      637            75516.136      0.0090618767 
    638000  -10797.76       74.569777     -10723.19       638            75627.127      0.0090096945 
    639000  -10796.903      70.358635     -10726.544      639            75738.33       0.0089925954 
    640000  -10795.214      75.22886      -10719.985      640            75851.685      0.0088217954 
    641000  -10800.074      70.82898      -10729.245      641            75965.239      0.0088064308 
    642000  -10794.773      74.189047     -10720.584      642            76080.245      0.0086952067 
    643000  -10796.933      75.004743     -10721.928      643            76196.595      0.0085947212 
    644000  -10795.675      73.293073     -10722.382      644            76316          0.0083748407 
    645000  -10798.172      76.300569     -10721.871      645            76435.099      0.0083964124 
    646000  -10796.721      72.672069     -10724.049      646            76557.87       0.0081452643 
    647000  -10797.741      76.49346      -10721.247      647            76684.636      0.0078885475 
    648000  -10800.719      72.463682     -10728.255      648            76812.484      0.0078217523 
    649000  -10794.145      72.878617     -10721.266      649            76939.712      0.0078599355 
    650000  -10799.932      73.535338     -10726.397      650            77070.294      0.0076580187 
    651000  -10793.975      73.679557     -10720.295      651            77198.249      0.007815252  
    652000  -10796.225      70.529663     -10725.695      652            77328.525      0.0076760067 
    653000  -10795.955      73.037977     -10722.917      653            77457.709      0.0077408833 
    654000  -10797.993      73.630863     -10724.362      654            77590.287      0.0075427465 
    655000  -10798.044      76.47441      -10721.569      655            77716.452      0.0079260896 
    656000  -10797.492      75.169758     -10722.323      656            77844.438      0.0078133893 
    657000  -10796.554      75.632521     -10720.921      657            77977.108      0.007537491  
    658000  -10800.38       72.088211     -10728.292      658            78107.178      0.0076881452 
    659000  -10795.132      74.757548     -10720.374      659            78240.668      0.0074912104 
    660000  -10796.761      76.63008      -10720.131      660            78374.561      0.0074686563 
    661000  -10796.178      74.646308     -10721.532      661            78506.365      0.0075870183 
    662000  -10796.792      76.895787     -10719.896      662            78637.752      0.0076111037 
    663000  -10794.666      72.704046     -10721.962      663            78770.696      0.0075219372 
    664000  -10794.817      73.892171     -10720.925      664            78903.959      0.0075039991 
    665000  -10793.416      74.249935     -10719.166      665            79036.759      0.0075301011 
    666000  -10795.612      71.728135     -10723.883      666            79169.03       0.0075602467 
    667000  -10798.637      75.132269     -10723.505      667            79300.607      0.0076001316 
    668000  -10797.089      74.701978     -10722.387      668            79433.01       0.0075526813 
    669000  -10794.311      75.473235     -10718.837      669            79565.236      0.0075628307 
    670000  -10796.167      71.102293     -10725.065      670            79697.542      0.0075582069 
    671000  -10791.665      74.624703     -10717.041      671            79830.697      0.0075100732 
    672000  -10796.818      73.661799     -10723.156      672            79962.914      0.0075632716 
    673000  -10795.386      73.294299     -10722.092      673            80095.954      0.0075165561 
    674000  -10795.716      74.698041     -10721.018      674            80230.464      0.0074343802 
    675000  -10800.538      73.950314     -10726.588      675            80365.853      0.0073861289 
    676000  -10793.583      74.373011     -10719.21       676            80501.198      0.007388564  
    677000  -10793.399      76.180186     -10717.219      677            80635.114      0.0074673544 
    678000  -10797.432      73.956337     -10723.476      678            80768.455      0.0074995578 
    679000  -10793.53       74.852883     -10718.677      679            80902.167      0.0074787456 
    680000  -10801.159      76.246003     -10724.913      680            81034.675      0.0075467341 
    681000  -10793.018      74.654623     -10718.364      681            81167.171      0.0075473639 
    682000  -10798.445      73.414859     -10725.03       682            81300.84       0.0074811917 
    683000  -10791.469      74.823898     -10716.645      683            81434.379      0.0074884416 
    684000  -10795.61       73.259573     -10722.35       684            81568.417      0.0074605888 
    685000  -10793.079      75.453921     -10717.625      685            81702.254      0.0074717705 
    686000  -10792.39       75.323936     -10717.066      686            81837.998      0.0073668008 
    687000  -10794.029      74.591992     -10719.437      687            81974.033      0.0073510721 
    688000  -10794.731      70.738041     -10723.993      688            82109.8        0.0073655352 
    689000  -10792.626      73.76517      -10718.861      689            82245.368      0.0073763802 
    690000  -10799.492      74.261801     -10725.23       690            82380.847      0.0073812246 
    691000  -10796.001      76.703548     -10719.297      691            82515.367      0.0074338107 
    692000  -10795.772      72.958205     -10722.814      692            82650.454      0.0074026639 
    693000  -10795.465      75.130645     -10720.335      693            82783.58       0.0075116657 
    694000  -10796.474      75.130385     -10721.343      694            82916.202      0.0075402507 
    695000  -10797.437      72.446909     -10724.99       695            83047.973      0.0075888925 
    696000  -10797.805      71.643304     -10726.162      696            83178.791      0.0076442416 
    697000  -10797.759      76.592909     -10721.166      697            83307.45       0.0077724714 
    698000  -10798.777      74.914643     -10723.862      698            83433.668      0.0079227968 
    699000  -10797.64       76.559568     -10721.081      699            83557.097      0.0081018264 
    700000  -10795.947      74.303172     -10721.644      700            83678.497      0.0082371963 
    701000  -10797.931      71.976827     -10725.954      701            83795.671      0.0085343772 
    702000  -10797.989      76.305069     -10721.684      702            83909.066      0.0088187313 
    703000  -10799.132      74.426084     -10724.706      703            84023.47       0.0087409475 
    704000  -10795.367      73.442465     -10721.925      704            84136.051      0.0088824521 
    705000  -10795.37       73.204946     -10722.165      705            84247.913      0.0089395981 
    706000  -10797.188      74.110677     -10723.077      706            84359.387      0.008970734  
    707000  -10793.118      74.206571     -10718.912      707            84469.984      0.0090418133 
    708000  -10794.63       74.210839     -10720.419      708            84580.758      0.0090273551 
    709000  -10797.709      74.935118     -10722.774      709            84691.278      0.009048183  
    710000  -10796.365      72.894575     -10723.47       710            84802.087      0.0090245172 
    711000  -10795.111      74.439869     -10720.671      711            84913.363      0.0089866309 
    712000  -10800.819      76.848495     -10723.97       712            85024.44       0.0090028201 
    713000  -10796.007      76.21972      -10719.787      713            85136.314      0.008938631  
    714000  -10797.453      72.847355     -10724.606      714            85248.992      0.0088748335 
    715000  -10796.793      74.903796     -10721.889      715            85361.673      0.0088745686 
    716000  -10800.676      71.758865     -10728.917      716            85473.823      0.0089166231 
    717000  -10795.385      74.142421     -10721.243      717            85585.71       0.0089375953 
    718000  -10799.112      74.683818     -10724.428      718            85696.701      0.0090097473 
    719000  -10796.532      76.461006     -10720.071      719            85807.431      0.0090309788 
    720000  -10797.555      73.537967     -10724.017      720            85919.051      0.0089589668 
    721000  -10797.926      73.288897     -10724.637      721            86029.767      0.009032172  
    722000  -10797.216      75.0985       -10722.118      722            86140.457      0.0090342055 
    723000  -10795.002      72.150391     -10722.852      723            86250.839      0.009059466  
    724000  -10794.976      72.832283     -10722.144      724            86364.276      0.0088154182 
    725000  -10796.355      74.183456     -10722.172      725            86479.368      0.0086887454 
    726000  -10802.381      75.318949     -10727.062      726            86598.938      0.0083632888 
    727000  -10800.351      75.207315     -10725.143      727            86725.935      0.0078741688 
    728000  -10797.55       75.26404      -10722.285      728            86855.497      0.0077183489 
    729000  -10799.48       77.7164       -10721.763      729            86989.261      0.0074758501 
    730000  -10800.261      74.7444       -10725.516      730            87121.911      0.0075386495 
    731000  -10794.168      73.000517     -10721.168      731            87254.3        0.0075534844 
    732000  -10798.311      72.490699     -10725.82       732            87385.801      0.0076045251 
    733000  -10793.73       73.693776     -10720.036      733            87518.849      0.0075160671 
    734000  -10797.411      73.40476      -10724.006      734            87650.585      0.007590961  
    735000  -10794.943      74.870602     -10720.073      735            87782.399      0.0075864396 
    736000  -10798.733      74.594775     -10724.138      736            87915.46       0.0075153228 
    737000  -10796.028      75.736731     -10720.291      737            88049.715      0.0074485266 
    738000  -10799.235      75.297424     -10723.938      738            88184.1        0.0074413001 
    739000  -10796.246      75.156844     -10721.089      739            88320.518      0.0073304111 
    740000  -10799.898      72.69931      -10727.199      740            88459.437      0.0071984403 
    741000  -10800.195      76.036048     -10724.159      741            88598.944      0.0071681006 
    742000  -10796.186      72.735688     -10723.451      742            88739.121      0.007133852  
    743000  -10799.338      72.348176     -10726.99       743            88876.542      0.0072768807 
    744000  -10797.184      74.804062     -10722.38       744            89012.635      0.007347949  
    745000  -10799.166      74.256982     -10724.909      745            89143.779      0.0076251895 
    746000  -10798.043      73.998238     -10724.045      746            89272.581      0.0077638439 
    747000  -10797.26       74.736254     -10722.523      747            89397.093      0.0080313672 
[...]
    888000  -10798.254      75.723449     -10722.531      888            106373.29      0.0073175101 
    889000  -10793.95       74.631135     -10719.319      889            106509.96      0.0073166841 
    890000  -10796.381      72.566648     -10723.815      890            106645.54      0.0073757043 
    891000  -10796.388      75.804874     -10720.583      891            106779.25      0.0074792569 
    892000  -10798.566      77.313778     -10721.252      892            106914.12      0.0074144355 
    893000  -10790.425      72.763794     -10717.661      893            107045.56      0.0076078267 
    894000  -10795.905      73.943802     -10721.961      894            107177.43      0.0075830035 
    895000  -10790.128      74.785991     -10715.342      895            107308.29      0.0076417862 
    896000  -10794.699      75.359267     -10719.34       896            107439.35      0.007630073  
    897000  -10796.16       74.615878     -10721.544      897            107571.03      0.0075941349 
    898000  -10796.419      74.143691     -10722.275      898            107702.43      0.0076107772 
    899000  -10792.504      76.671716     -10715.832      899            107834.45      0.007574237  
    900000  -10794.643      74.935364     -10719.708      900            107966.73      0.0075599615 
    901000  -10795.42       73.714337     -10721.706      901            108098.73      0.0075755032 
    902000  -10792.633      72.143444     -10720.489      902            108229.66      0.0076377934 
    903000  -10793.611      72.477187     -10721.134      903            108359.4       0.0077081437 
    904000  -10795.383      74.716988     -10720.666      904            108489.95      0.0076597954 
    905000  -10795.059      73.149023     -10721.91       905            108619.4       0.0077250405 
    906000  -10791.93       72.562709     -10719.368      906            108747.13      0.0078287704 
    907000  -10797.158      72.676757     -10724.481      907            108874.32      0.0078622896 
    908000  -10796.455      73.849523     -10722.605      908            109000.94      0.0078977128 
    909000  -10796.395      74.762667     -10721.632      909            109126.92      0.0079373489 
    910000  -10794.293      76.4846       -10717.809      910            109250.99      0.0080603475 
    911000  -10796.108      70.677787     -10725.431      911            109370.32      0.0083800446 
    912000  -10796.617      73.608591     -10723.009      912            109490.5       0.0083205298 
    913000  -10797.154      77.222476     -10719.932      913            109607.72      0.0085311948 
    914000  -10798.884      72.804291     -10726.08       914            109725.84      0.0084663376 
    915000  -10796.494      73.125179     -10723.369      915            109840.47      0.0087236466 
    916000  -10795.566      74.709683     -10720.856      916            109958.75      0.0084540094 
    917000  -10800.44       75.264224     -10725.176      917            110072.6       0.0087841092 
    918000  -10797.257      76.13063      -10721.126      918            110184.49      0.0089369484 
    919000  -10798.373      76.522312     -10721.851      919            110295.74      0.0089888719 
    920000  -10799.546      76.115068     -10723.431      920            110406.78      0.0090058551 
    921000  -10792.875      76.43436      -10716.441      921            110517.46      0.0090349774 
    922000  -10798.181      73.783206     -10724.398      922            110628.26      0.0090248832 
    923000  -10793.75       74.616783     -10719.133      923            110738.96      0.0090335294 
    924000  -10797.504      78.300371     -10719.204      924            110848.7       0.0091127442 
    925000  -10792.68       73.07496      -10719.605      925            110957.66      0.009177901  
    926000  -10796.396      72.866603     -10723.53       926            111066.71      0.0091702544 
    927000  -10793.662      78.385553     -10715.276      927            111177.11      0.0090574095 
    928000  -10796.88       73.962605     -10722.917      928            111286.36      0.0091534901 
    929000  -10796.513      71.505037     -10725.008      929            111395.5       0.009162412  
    930000  -10793.734      72.118218     -10721.616      930            111504.66      0.009161276  
    931000  -10794.261      74.290449     -10719.97       931            111614.95      0.0090670506 
    932000  -10795.372      78.954124     -10716.418      932            111725.45      0.0090498075 
    933000  -10794.547      72.555178     -10721.992      933            111836.82      0.0089785874 
    934000  -10796.333      77.291553     -10719.041      934            111948.46      0.0089578845 
    935000  -10798.036      73.063395     -10724.973      935            112060.33      0.0089386379 
    936000  -10797.13       75.041193     -10722.089      936            112172.12      0.0089449924 
    937000  -10795.188      74.772071     -10720.416      937            112281.39      0.0091517789 
    938000  -10794.865      76.217979     -10718.647      938            112390.59      0.0091578834 
    939000  -10796.733      71.867994     -10724.865      939            112498.87      0.0092352962 
    940000  -10794.367      76.712011     -10717.655      940            112607.42      0.009212188  
    941000  -10789.814      73.801302     -10716.013      941            112716.18      0.0091945694 
    942000  -10794.498      72.01926      -10722.479      942            112824.09      0.0092669919 
    943000  -10794.52       74.161777     -10720.358      943            112932.95      0.0091857813 
    944000  -10794.515      73.982043     -10720.533      944            113043.24      0.0090673783 
    945000  -10793.155      75.503613     -10717.652      945            113152.62      0.0091420727 
    946000  -10796.027      78.013226     -10718.013      946            113263.24      0.0090402456 
    947000  -10794.293      75.728783     -10718.564      947            113372.75      0.009131612  
    948000  -10797.817      75.126854     -10722.69       948            113482.3       0.009128375  
    949000  -10795.293      75.487302     -10719.805      949            113595.57      0.0088284741 
    950000  -10795.998      73.694115     -10722.304      950            113708.04      0.0088907622 
    951000  -10793.799      74.857773     -10718.942      951            113822.87      0.0087088582 
    952000  -10794.917      76.383515     -10718.534      952            113938.95      0.0086148915 
    953000  -10796.756      75.688118     -10721.067      953            114058.53      0.0083625783 
    954000  -10797.202      71.989435     -10725.213      954            114180.54      0.0081956096 
    955000  -10795.88       75.62787      -10720.252      955            114302.83      0.0081773339 
    956000  -10798.793      72.142956     -10726.65       956            114427.43      0.0080260784 
    957000  -10795.598      74.278433     -10721.319      957            114554.47      0.0078711641 
    958000  -10798.769      76.068545     -10722.701      958            114681.48      0.0078733359 
    959000  -10796.696      76.525071     -10720.171      959            114809.43      0.0078160174 
    960000  -10797.826      74.008477     -10723.817      960            114939.37      0.0076958048 
    961000  -10795.233      74.145136     -10721.088      961            115070.17      0.0076452855 
    962000  -10796.202      72.50308      -10723.699      962            115200.69      0.0076616413 
    963000  -10798.641      74.200559     -10724.44       963            115331.51      0.0076441361 
    964000  -10796.2        76.095089     -10720.105      964            115460.64      0.0077440949 
    965000  -10797.27       72.206889     -10725.063      965            115589.77      0.0077440242 
    966000  -10796.058      74.608429     -10721.45       966            115719.01      0.0077374511 
    967000  -10793.677      75.287779     -10718.389      967            115848.45      0.0077256985 
    968000  -10793.799      77.114677     -10716.685      968            115980.29      0.0075850863 
    969000  -10794.896      71.868985     -10723.027      969            116110.23      0.0076957267 
    970000  -10794.487      75.543613     -10718.943      970            116239.71      0.0077233133 
    971000  -10797.818      74.829504     -10722.989      971            116369         0.0077346245 
    972000  -10794.256      74.662785     -10719.594      972            116496.94      0.0078159761 
    973000  -10795.483      73.743557     -10721.739      973            116628.93      0.0075763846 
    974000  -10796.556      76.445459     -10720.11       974            116756.95      0.0078113089 
    975000  -10795.967      76.596813     -10719.37       975            116884.38      0.0078472853 
    976000  -10795.029      73.677717     -10721.351      976            117014.14      0.0077065481 
    977000  -10797.188      74.367493     -10722.82       977            117144.56      0.0076675413 
    978000  -10795.302      72.729192     -10722.573      978            117272.71      0.0078032864 
    979000  -10794.271      74.576186     -10719.695      979            117400.87      0.0078027942 
    980000  -10794.473      71.763015     -10722.71       980            117529.06      0.0078007642 
    981000  -10793.421      76.996621     -10716.424      981            117656.17      0.0078672896 
    982000  -10797.754      75.934276     -10721.819      982            117782.96      0.0078872181 
    983000  -10794.506      77.085926     -10717.42       983            117909.38      0.0079098389 
    984000  -10799.573      73.704553     -10725.868      984            118036.58      0.0078620295 
    985000  -10793.595      73.675517     -10719.919      985            118162.67      0.0079304296 
    986000  -10799.141      75.823742     -10723.317      986            118290.1       0.0078477897 
    987000  -10797.428      74.354161     -10723.074      987            118417.19      0.0078685828 
    988000  -10798.214      73.412612     -10724.801      988            118546.33      0.0077435358 
    989000  -10797.997      73.083496     -10724.913      989            118673.07      0.0078898492 
    990000  -10794.082      72.806849     -10721.275      990            118800.4       0.0078536392 
    991000  -10798.765      72.901223     -10725.864      991            118929.32      0.0077566593 
    992000  -10798.016      72.936688     -10725.08       992            119057.09      0.0078267568 
    993000  -10796.844      76.666617     -10720.177      993            119184.52      0.0078475414 
    994000  -10793.852      72.797201     -10721.055      994            119311.55      0.0078719892 
    995000  -10795.247      73.098379     -10722.148      995            119439.18      0.0078349164 
    996000  -10797.482      74.699966     -10722.782      996            119568.66      0.0077234418 
    997000  -10798.645      74.56862      -10724.076      997            119701.31      0.0075387921 
    998000  -10794.03       73.919395     -10720.111      998            119833.19      0.0075824028 
    999000  -10797.379      72.001238     -10725.378      999            119965.84      0.0075385275 
   1000000  -10795.812      71.059812     -10724.752      1000           120098.47      0.0075400792 
Loop time of 120098 on 16 procs for 1000000 steps with 1152 atoms

Performance: 0.719 ns/day, 33.361 hours/ns, 8.327 timesteps/s, 9.592 katom-step/s
99.3% CPU use with 16 MPI tasks x 1 OpenMP threads

MPI task timing breakdown:
Section |  min time  |  avg time  |  max time  |%varavg| %total
---------------------------------------------------------------
Pair    | 29263      | 32157      | 35166      |1003.0 | 26.78
Neigh   | 319.71     | 353.71     | 401.74     | 139.5 |  0.29
Comm    | 3177.1     | 5105.3     | 7695.6     |1951.8 |  4.25
Output  | 0.17865    | 0.19184    | 0.36496    |  10.2 |  0.00
Modify  | 81092      | 82474      | 84961      | 427.6 | 68.67
Other   |            | 8.973      |            |       |  0.01

Nlocal:             72 ave          90 max          52 min
Histogram: 3 1 0 0 0 6 2 0 1 3
Nghost:        852.438 ave         923 max         758 min
Histogram: 3 1 0 0 1 3 1 2 1 4
Neighs:              0 ave           0 max           0 min
Histogram: 16 0 0 0 0 0 0 0 0 0
FullNghs:      5503.12 ave        7852 max        3570 min
Histogram: 4 0 1 3 0 4 0 1 1 2

Total # of neighbors = 88050
Ave neighs/atom = 76.432292
Neighbor list builds = 2000000
Dangerous builds = 0

unfix temp

min_style cg
fix 0 all box/relax aniso 0 vmax 0.001
minimize 0 0 100000 100000
Per MPI rank memory allocation (min/avg/max) = 5.533 | 5.539 | 5.543 Mbytes
   Step         PotEng         KinEng         TotEng          Time           CPU           T/CPU     
   1000000  -10795.812      71.059812     -10724.752      1000           0              0            
   1001000  -10873.325      71.059812     -10802.265      1001           67.653186      0.01478127   
   1002000  -10873.342      71.059812     -10802.282      1002           156.20201      0.011293205  
   1003000  -10873.349      71.059812     -10802.29       1003           245.46073      0.011203387  
   1004000  -10873.356      71.059812     -10802.296      1004           334.41966      0.011241142  
   1005000  -10873.357      71.059812     -10802.297      1005           424.07867      0.011153369  
   1006000  -10873.358      71.059812     -10802.298      1006           513.01455      0.011244056  
   1007000  -10873.358      71.059812     -10802.298      1007           601.9904       0.011239005  
   1008000  -10873.358      71.059812     -10802.298      1008           690.97078      0.011238432  
   1009000  -10873.358      71.059812     -10802.298      1009           780.28397      0.011196554  
   1010000  -10873.358      71.059812     -10802.298      1010           869.33672      0.0112293    
   1011000  -10873.358      71.059812     -10802.298      1011           958.62683      0.011199449  
   1012000  -10873.358      71.059812     -10802.298      1012           1047.8941      0.011202308  
   1013000  -10873.358      71.059812     -10802.298      1013           1137.2618      0.011189737  
   1014000  -10873.358      71.059812     -10802.298      1014           1226.4225      0.011215691  
   1015000  -10873.358      71.059812     -10802.298      1015           1316.5706      0.011092869  
   1016000  -10873.358      71.059812     -10802.298      1016           1406.1452      0.011163875  
   1017000  -10873.358      71.059812     -10802.298      1017           1495.5903      0.011180035  
   1018000  -10873.358      71.059812     -10802.298      1018           1584.9979      0.011184742  
   1019000  -10873.358      71.059812     -10802.298      1019           1674.5965      0.011160881  
   1020000  -10873.358      71.059812     -10802.298      1020           1763.8234      0.011207381  
   1021000  -10873.358      71.059812     -10802.298      1021           1853.4502      0.011157381  
   1022000  -10873.358      71.059812     -10802.298      1022           1942.8873      0.011181036  
   1023000  -10873.358      71.059812     -10802.298      1023           2032.391       0.011172729  
   1024000  -10873.358      71.059812     -10802.298      1024           2121.8825      0.011174248  
   1025000  -10873.358      71.059812     -10802.298      1025           2211.2944      0.011184189  
   1026000  -10873.358      71.059812     -10802.298      1026           2300.8764      0.011162956  
   1027000  -10873.358      71.059812     -10802.298      1027           2390.3857      0.011172031  
   1028000  -10873.358      71.059812     -10802.298      1028           2479.1655      0.011263818  
   1029000  -10873.358      71.059812     -10802.298      1029           2566.8064      0.011410196  
   1030000  -10873.358      71.059812     -10802.298      1030           2654.4192      0.011413865  
   1031000  -10873.358      71.059812     -10802.298      1031           2742.1262      0.01140159   
   1032000  -10873.358      71.059812     -10802.298      1032           2829.9591      0.011385262  
   1033000  -10873.358      71.059812     -10802.298      1033           2917.7799      0.011386816  
   1034000  -10873.358      71.059812     -10802.298      1034           3005.5561      0.011392608  
   1035000  -10873.358      71.059812     -10802.298      1035           3093.4298      0.011379971  
   1036000  -10873.358      71.059812     -10802.298      1036           3181.1284      0.011402693  
   1037000  -10873.358      71.059812     -10802.298      1037           3268.6586      0.011424635  
   1038000  -10873.358      71.059812     -10802.298      1038           3356.1605      0.011428314  
   1039000  -10873.358      71.059812     -10802.298      1039           3443.7059      0.011422644  
   1040000  -10873.358      71.059812     -10802.298      1040           3531.4714      0.011394009  
   1041000  -10873.358      71.059812     -10802.298      1041           3619.1696      0.011402731  
   1042000  -10873.358      71.059812     -10802.298      1042           3707.1134      0.011370908  
   1043000  -10873.358      71.059812     -10802.298      1043           3794.7535      0.011410297  
   1044000  -10873.358      71.059812     -10802.298      1044           3882.3587      0.011414845  
   1045000  -10873.358      71.059812     -10802.298      1045           3970.0391      0.011405067  
   1046000  -10873.358      71.059812     -10802.298      1046           4059.4292      0.011186915  
   1047000  -10873.358      71.059812     -10802.298      1047           4149.0544      0.011157574  
   1048000  -10873.358      71.059812     -10802.298      1048           4238.5723      0.011170951  
   1049000  -10873.358      71.059812     -10802.298      1049           4326.4717      0.011376641  
   1050000  -10873.358      71.059812     -10802.298      1050           4414.0962      0.011412333  
   1050242  -10873.358      71.059812     -10802.298      1050.242       4435.3332      0.011395218  
Loop time of 4435.33 on 16 procs for 50242 steps with 1152 atoms

99.3% CPU use with 16 MPI tasks x 1 OpenMP threads

Minimization stats:
  Stopping criterion = max force evaluations
  Energy initial, next-to-last, final = 
       -10795.81150193  -10873.3578168204  -10873.3578168204
  Force two-norm initial, final = 122.70309 2.5962736e-11
  Force max component initial, final = 107.82003 2.3412397e-11
  Final line search alpha, max atom move = 1 2.3412397e-11
  Iterations, force evaluations = 50242 100000

MPI task timing breakdown:
Section |  min time  |  avg time  |  max time  |%varavg| %total
---------------------------------------------------------------
Pair    | 2087.6     | 3169.8     | 4338.2     |1240.0 | 71.47
Neigh   | 0.00047062 | 0.00070092 | 0.0012427  |   0.0 |  0.00
Comm    | 8.6903     | 922.75     | 2233.7     |2119.6 | 20.80
Output  | 0.0065228  | 0.007198   | 0.01614    |   2.7 |  0.00
Modify  | 0          | 0          | 0          |   0.0 |  0.00
Other   |            | 342.8      |            |       |  7.73

Nlocal:             72 ave          90 max          53 min
Histogram: 4 0 0 0 0 8 0 0 0 4
Nghost:        876.375 ave         934 max         790 min
Histogram: 3 1 0 0 1 2 1 1 3 4
Neighs:              0 ave           0 max           0 min
Histogram: 16 0 0 0 0 0 0 0 0 0
FullNghs:      5584.75 ave        8004 max        3578 min
Histogram: 4 0 1 2 1 4 0 1 1 2

Total # of neighbors = 89356
Ave neighs/atom = 77.565972
Neighbor list builds = 2
Dangerous builds = 0

write_data data.CSRO
System init for write_data ...

print "all done"
all done
Total wall time: 34:35:34
