LAMMPS data file via write_data, version 22 Dec 2022, timestep = 1050180

1152 atoms
5 atom types

-0.0480619270393896 15.454862511196515 xlo xhi
0.000682666790924732 16.340697087376054 ylo yhi
0.42810702549225554 70.73285669141175 zlo zhi

Masses

1 180.948
2 92.9064
3 50.9415
4 95.94
5 183.84

Atoms # atomic

624 3 0.4817354920103142 2.7577380554210595 2.7558926164714257 -2 1 0
625 3 1.7614684297069099 1.8555315197106952 4.703593702534164 -2 1 0
629 3 1.7856169043097943 1.8431130880956241 0.8019325422088919 -2 1 0
631 3 3.063745243997324 3.6637070749185074 2.7516208916870024 -2 1 0
604 3 3.0721846512612125 0.9387449691133286 2.7496166269928564 -2 1 0
72 3 0.48927317027305367 0.032312638355034284 2.75488326413857 -2 1 0
67 3 4.354424065120116 0.03965022625796881 4.695230508539753 -2 1 0
605 3 4.341246152376636 2.764680000438915 4.6984485339789765 -2 1 0
609 3 5.6532308533715225 1.8501789468912604 2.7426553098125215 -2 1 0
608 3 4.3682426154861735 2.751424818844402 0.7964541454689265 -2 1 0
587 3 6.957213853599077 0.9382988597589632 0.790470726416139 -2 1 0
615 3 6.952657888430581 3.66084527695706 0.7907236159372786 -2 1 0
585 3 6.934200813422971 0.9549173515296435 4.6887683893997085 -2 1 0
611 3 6.915889105554554 3.6826026439561237 4.689998126467 -2 1 0
68 3 4.37325938060215 0.028036688377736194 0.7953058737609523 -2 1 0
588 3 8.234424723375323 2.7626329158453893 2.7395163180972606 -2 1 0
589 3 9.509235770746125 1.8701865158839193 4.69137974990995 -2 1 0
595 3 10.816159285774242 3.672303550635242 2.74534473770281 -2 1 0
578 3 10.824287116868838 0.9472194402546095 2.745946730443672 -2 1 0
593 3 9.540768147385515 1.8473926169928603 0.7909118803525588 -2 1 0
52 3 8.24398744411456 0.03729769389197754 2.7399887820648097 -2 1 0
34 3 12.127476190390407 0.031180232182325098 0.7975744294401178 -2 1 0
623 3 14.707700365915729 0.9368725393380581 0.8025762776137602 -3 1 0
582 3 12.122209554960827 2.754686031551116 0.7974378513223679 -2 1 0
583 3 13.403443263858106 1.8536117012466296 2.7538558749559634 -2 1 0
579 3 12.08826717665584 2.777792292571034 4.701740712672915 -2 1 0
643 3 14.702553995030554 3.660622941998909 0.8034406376162441 -3 1 0
639 3 14.670008975458677 3.6796286983044753 4.708564742153434 -3 1 0
33 3 12.100994375025264 0.053620319226287 4.705282434909632 -2 1 0
626 3 1.7484286883740867 4.580889507024106 4.707407977264741 -2 1 0
645 3 0.47636305127404077 5.482212588443509 2.7574087197255848 -2 1 0
632 3 3.059921255573836 6.387801601149229 2.7523871945200966 -2 1 0
648 3 1.7814010382601104 7.289609093144437 0.8029709840342987 -2 1 0
630 3 1.7811486524377569 4.566478400555296 0.8032790433100174 -2 1 0
647 3 1.7450989586660866 7.306290242470583 4.7096722307793115 -2 1 0
610 3 5.645213181940169 4.574422913672555 2.74338377317355 -2 1 0
633 3 4.327116011730778 5.49225425475152 4.699166039102717 -2 1 0
638 3 5.645396260896401 7.2976805029868705 2.74294582021502 -2 1 0
616 3 6.95151205247944 6.383298688896663 0.7912454108164719 -2 1 0
612 3 6.910132758622874 6.407443606703959 4.687392905919351 -2 1 0
636 3 4.365223401022823 5.474016179037424 0.797569789089325 -2 1 0
590 3 9.496157932784175 4.596220406432074 4.689739660614445 -2 1 0
594 3 9.536939316994781 4.569883579859343 0.7905525247829428 -2 1 0
617 3 8.230033285710144 5.4860558121581615 2.7387291672210354 -2 1 0
620 3 9.537905482993073 7.292987772997167 0.7907861097628495 -2 1 0
596 3 10.815342050690765 6.396058991720908 2.7446258491796076 -2 1 0
584 3 13.397206765569814 4.578711156319113 2.754555773139564 -2 1 0
644 3 14.70137466854541 6.383910270085505 0.8031225694046291 -3 1 0
597 3 12.080619144926183 5.503973494779604 4.702229297685202 -2 1 0
602 3 13.398694393657623 7.30209183507377 2.7545181837500254 -2 1 0
600 3 12.11964781977197 5.477707077921324 0.7970623253262333 -2 1 0
640 3 14.665034300623534 6.4045001521924085 4.71176209290797 -3 1 0
622 3 0.4415367388243423 2.7744015797954615 6.661074511868755 -2 1 0
701 3 1.695412966184859 1.8728961003625302 8.63224030124473 -2 1 0
603 3 3.032078000242283 0.9581814824237338 6.653575362126484 -2 1 0
627 3 3.015196428571338 3.675945897118968 6.657026892198749 -2 1 0
70 3 0.4526386901611788 0.062306978051471826 6.662460121452013 -2 1 0
140 3 4.281989380046858 0.07910208428639504 8.610836785420824 -2 1 0
680 3 4.264323231021855 2.7766243590915707 8.61137425956941 -2 1 0
606 3 5.614724981842606 1.869751092643926 6.64436647678609 -2 1 0
687 3 6.8763022614029845 3.6935209423090507 8.594500569207714 -2 1 0
659 3 6.873071484126406 1.0027023007944738 8.593571183235607 -2 1 0
586 3 8.189920481135045 2.7909112686494404 6.638774154827078 -2 1 0
665 3 9.486925887924082 1.9142576937307232 8.607206932139196 -2 1 0
577 3 10.787417606218932 0.9865733019581426 6.652567204728343 -2 1 0
591 3 10.771395184219486 3.6994071970828184 6.645173296797997 -2 1 0
50 3 8.209251139489792 0.07528268681745788 6.642504688982271 -2 1 0
621 3 14.68123630212431 0.9547982661370565 4.707210849212198 -3 1 0
106 3 12.083185505021458 0.12444606492180853 8.635732807503167 -2 1 0
695 3 14.645716953809377 0.9988157519037494 8.640387538091007 -3 1 0
715 3 14.63020875132994 3.683759481331965 8.636734071742683 -3 1 0
580 3 13.368094462870031 1.8825566009798016 6.661127183907701 -2 1 0
654 3 12.069689770710243 2.8047783695966886 8.625122586014912 -2 1 0
702 3 1.682893110919009 4.564750694917239 8.630726164727314 -2 1 0
641 3 0.4276951249128828 5.492633695448678 6.666188600084979 -2 1 0
720 3 1.6787912518638304 7.306408791044085 8.607612805139727 -2 1 0
628 3 3.001966519937872 6.40224635707733 6.6561970809828646 -2 1 0
607 3 5.591545582107502 4.597778878855804 6.645130645552604 -2 1 0
708 3 4.266112418100644 5.48677883393246 8.600180025332346 -2 1 0
635 3 5.591262977111424 7.32089192455473 6.6413777665013916 -2 1 0
688 3 6.860992286112702 6.414594248459727 8.578170392426289 -2 1 0
619 3 9.497122752444218 7.321029778356335 4.688284046621132 -2 1 0
692 3 9.472277857857547 7.32409975039574 8.565438062637973 -2 1 0
613 3 8.172264858011538 5.515983845249179 6.6313829585746635 -2 1 0
592 3 10.763196093288947 6.425882946634127 6.6389091178933395 -2 1 0
666 3 9.477947879031904 4.60039258530404 8.582861627668997 -2 1 0
581 3 13.355817435843035 4.5992217669111914 6.660744533799038 -2 1 0
599 3 13.353334281182988 7.3246425094072025 6.661720455753677 -2 1 0
716 3 14.619328121619628 6.3900055820333215 8.637594045402816 -3 1 0
672 3 12.06549849899277 5.49855698490213 8.607190545216646 -2 1 0
696 3 0.3658250586026318 2.773372016321463 10.655200967768039 -2 1 0
697 3 1.5754807588527135 1.875001202161854 12.728720114951175 -2 1 0
676 3 2.9196703002566573 0.9947231628280296 10.627296612576675 -2 1 0
703 3 2.902569305875875 3.6339196700499716 10.615167945683257 -2 1 0
144 3 0.3905274766928532 0.13064372765815235 10.65765753107431 -2 1 0
677 3 4.143890612205091 2.725370036381057 12.620580659464434 -2 1 0
681 3 5.480618414045086 1.923949087644627 10.553764934869674 -2 1 0
657 2 6.813609311620472 1.0651569257065332 12.596462299854913 -2 1 0
683 3 6.892422274097868 3.697793014586842 12.586351112010199 -2 1 0
139 3 4.082551128350416 0.13833307289655908 12.6371610862224 -2 1 0
660 3 8.202772324406752 2.8384056072250026 10.576069949199203 -2 1 0
661 3 9.575833391599023 2.0491151916746753 12.628632841842323 -2 1 0
650 3 10.831723383754804 1.0881322821605253 10.60686686615206 -2 1 0
667 3 10.811999448560178 3.7152329023168895 10.605839727678477 -2 1 0
124 3 8.165209103848516 0.15242747820335656 10.505153390330054 -2 1 0
711 3 14.577366191139754 3.6674294132329415 12.76283823085011 -3 1 0
693 3 14.605769595760533 1.0632308036326752 12.768265705021406 -3 1 0
655 3 13.359974793528817 1.9354145803423792 10.65791860349648 -2 1 0
651 3 12.115133179068488 2.851905479540937 12.725958072987838 -2 1 0
105 3 12.186639192595702 0.2253783250972315 12.702735529424048 -2 1 0
698 3 1.524542906063379 4.475048164394017 12.695922957680795 -2 1 0
717 3 0.3457707683165157 5.425287530793161 10.62681117084675 -2 1 0
719 2 1.6082218449494161 7.2336370726493255 12.625705451478696 -2 1 0
704 3 2.9373061344218487 6.380161072743899 10.517196010702952 -2 1 0
682 3 5.56696473740897 4.533307637492409 10.52498510530788 -2 1 0
705 2 4.195671345646476 5.438181107749788 12.605770283588619 -2 1 0
710 3 5.489731072422997 7.333977908832348 10.483420518064204 -2 1 0
684 2 6.88752924118961 6.346290093400607 12.565558445934778 -2 1 0
662 3 9.585826603984009 4.526469457334279 12.633390423039586 -2 1 0
689 3 8.224439970700011 5.447089403206113 10.493719084518824 -2 1 0
691 2 9.57470754423032 7.23069766870896 12.59967278218639 -2 1 0
668 3 10.83056737589375 6.355544363017363 10.524922570617198 -2 1 0
656 3 13.339846868338752 4.574789486221538 10.64655043216635 -2 1 0
712 3 14.516233875853494 6.253148861593753 12.732582896114431 -3 1 0
669 3 12.10261150968093 5.436720189150168 12.72214288326453 -2 1 0
674 3 13.31479744276479 7.252750646348671 10.603152998415522 -2 1 0
694 3 0.2432690016489668 2.766438473822112 15.00197549630137 -2 1 0
788 3 1.4617623322067963 1.8641924637463578 17.31353615785243 -2 1 0
699 2 2.7955676663390485 3.5826151810523537 14.921163225598173 -2 1 0
675 3 2.7464331182943473 0.9802631475433613 14.911197564034419 -2 1 0
142 3 0.3233695041221216 0.27854567446360895 14.968894389124975 -2 1 0
761 2 4.135904290633189 2.8161185324317066 17.354724107462726 -2 1 0
678 2 5.443053135704201 1.929516494546312 14.893104978678581 -2 1 0
735 2 6.8287024686550755 1.0972765523714982 17.303421844841587 -2 1 0
769 2 6.914258673214181 3.7370259211465813 17.348477052740858 -2 1 0
229 2 4.05772939421615 0.18527251451561766 17.262875371285695 -2 1 0
122 2 8.151870754208558 0.20502046920197825 14.924415169198106 -2 1 0
658 2 8.267787122636115 2.8621449822277483 14.919021064069565 -2 1 0
743 3 9.566823841409898 2.0803501063175043 17.32072421560419 -2 1 0
649 2 10.889407507616967 1.2037716566531502 14.978017143610273 -2 1 0
663 3 10.896700878614201 3.7796167347738927 14.927850302005073 -2 1 0
780 3 14.552751531273872 1.1829519115933151 17.33917147450198 -3 1 0
805 3 14.50922627630909 3.5672441798204373 17.345038383940548 -3 1 0
652 3 13.402623938437289 1.9906685346000124 15.00512301607555 -2 1 0
727 3 12.081233335206305 2.7888878630245237 17.337848782428605 -2 1 0
186 3 12.106945318941627 0.36694402225690886 17.307138894872946 -2 1 0
714 2 0.27361224458292854 8.111968771510366 14.939958922366452 -2 1 0
789 2 1.5329100994063891 4.428188492838159 17.34754822486723 -2 1 0
713 3 0.22671668958854246 5.33621972307049 14.909734877965219 -2 1 0
810 2 1.608481805982007 7.215430997885079 17.321071329874727 -2 1 0
700 2 2.8593010878166916 6.320858859634399 14.94178824024722 -2 1 0
679 2 5.556438077256757 4.572178684624066 14.921657221783136 -2 1 0
795 2 4.231890030013397 5.448559615336154 17.366768043188603 -2 1 0
707 2 5.536644345575593 7.303944682786703 14.90913400503562 -2 1 0
770 2 6.904778900229472 6.371937515675202 17.369510786020683 -2 1 0
670 3 12.086939313943116 8.099235108501173 12.64260567688583 -2 1 0
744 3 9.547260152982131 4.516303016105125 17.335565152447394 -2 1 0
685 2 8.301539282829212 5.473044041195483 14.935395595198013 -2 1 0
774 2 9.491281813143047 7.21280594954802 17.311943460134078 -2 1 0
664 3 10.892907106196185 6.281642124825933 14.891543456605806 -2 1 0
671 3 13.264489460230815 7.132570937628127 14.870221284672349 -2 1 0
653 3 13.343776763453894 4.524998583574906 14.928152632362588 -2 1 0
750 2 12.018510860381383 5.337053204928455 17.27432998956124 -2 1 0
806 2 14.547776405600098 6.230513672829226 17.259206879219946 -3 1 0
751 2 12.029816870589983 8.14167568282419 17.281860170737133 -2 1 0
781 3 0.2752427702365012 2.7597877728835054 19.749003221115597 -2 1 0
782 3 1.5639385790712326 2.0962890622667607 22.157970281999813 -2 1 0
755 2 2.775353414394481 1.1831903858485842 19.72985062109904 -2 1 0
790 3 2.8709545428755368 3.682096732372529 19.833559876206657 -2 1 0
234 3 0.2912527838302723 0.3530187856185632 19.698491477185495 -2 1 0
228 2 4.144127769481034 0.3233618010263267 22.178528989411916 -2 1 0
762 2 5.458026931833566 2.077405775988682 19.766896325082953 -2 1 0
764 3 6.775250190805518 3.7715012497900666 22.116829813045157 -2 1 0
731 2 6.753140772833523 1.2106422139242563 22.15848075946604 -2 1 0
756 3 4.11416199248682 2.8619304146490046 22.189223348068786 -2 1 0
736 2 8.18136225188233 2.967264478841571 19.72299977964421 -2 1 0
737 2 9.460316575789387 2.068292170460054 22.123972097988293 -2 1 0
723 2 10.792531536290362 1.2309883640592756 19.66534432079318 -2 1 0
745 3 10.821871245844624 3.743208701172003 19.68451124125557 -2 1 0
208 2 8.10947361373104 0.2529680052204484 19.709937548753338 -2 1 0
800 3 14.607162103283432 3.6294761182915725 22.13339124601497 -3 1 0
776 3 14.623499811542908 1.2642678375776848 22.06958390835856 -3 1 0
728 3 13.35004915678206 2.086779195008855 19.729538342565373 -2 1 0
724 3 12.11043296725563 2.8985208331857253 22.06113846491737 -2 1 0
185 2 12.095371893398202 0.3449176082841044 22.145767421020896 -2 1 0
783 3 1.5920166082091887 4.431961113898563 22.17728354430658 -2 1 0
807 2 0.3055191854353961 5.290135284668526 19.764004078745796 -2 1 0
809 2 1.6195607697553864 7.146225481166201 22.155571628380834 -2 1 0
791 2 2.9199116849896347 6.247676485627045 19.750520626204683 -2 1 0
808 2 0.33890884505373237 8.133053969404795 19.728172739322385 -2 1 0
763 3 5.5689116447193845 4.601994169265279 19.791744271421656 -2 1 0
792 2 4.188532033771124 5.345267003567856 22.132998624263994 -2 1 0
797 2 5.549645454313244 7.212250449927463 19.74677750581665 -2 1 0
765 2 6.870331851444181 6.324928549335697 22.12385010037334 -2 1 0
793 2 4.216880320925399 8.131568285772438 22.156554616303602 -2 1 0
738 2 9.437928351404386 4.696495430013468 22.11818387787919 -2 1 0
771 3 8.167113120278406 5.49291402930951 19.738881634198734 -2 1 0
773 3 9.462076862173646 7.269823272362804 22.161884313445526 -2 1 0
746 2 10.706858925606067 6.302088597365482 19.734055572682593 -2 1 0
772 2 8.159982177716122 8.149531221176863 19.768242719301938 -2 1 0
729 3 13.287788872130017 4.453939224946 19.719572888633188 -2 1 0
801 2 14.589653594703957 6.230634685788887 22.197759624590653 -3 1 0
747 2 12.058226788299754 5.416895994434629 22.169859858316304 -2 1 0
752 2 13.290386842768697 7.174912031148558 19.72067264392084 -2 1 0
748 2 11.989316042070307 8.128300081330485 22.167028368049827 -2 1 0
232 2 0.34981144650472823 0.39166929378561616 24.532040230176857 -2 1 0
777 3 0.3986788766667896 2.957632386150625 24.52531599363613 -2 1 0
784 3 2.8251791801943424 3.622198923708055 24.547835952845464 -2 1 0
753 3 2.912044643249001 1.2600093622247772 24.575378543400603 -2 1 0
757 3 5.3507771192550715 2.0186826848096477 24.56312721031799 -2 1 0
732 2 8.057894656928912 2.91661683514876 24.546152103393112 -2 1 0
721 2 10.75599121495571 1.2019542751258978 24.538481433309723 -2 1 0
739 2 10.818249006925985 3.8658647311979406 24.610129262333523 -2 1 0
206 2 8.075888176469425 0.26413985889264396 24.544036259344214 -2 1 0
725 2 13.379964736674065 2.1080724509974695 24.528564516274116 -2 1 0
803 2 0.29826468557563457 8.034886513706592 24.556452792641572 -2 1 0
802 3 0.2951838365805397 5.3421970951645505 24.577165024428982 -2 1 0
785 2 2.850611217365524 6.189853303096626 24.57772671835197 -2 1 0
794 2 5.519538735942883 7.1993961334582846 24.58550927369596 -2 1 0
758 2 5.431614354870156 4.514019351370871 24.56432974789431 -2 1 0
740 3 10.830729373028133 6.37593522317157 24.56501265377477 -2 1 0
766 2 8.176658594452888 5.515502286583508 24.59796185791555 -2 1 0
767 2 8.170156543461724 8.159088217904026 24.522245179892792 -2 1 0
726 3 13.385006386268197 4.67673464173945 24.6177725433694 -2 1 0
749 3 13.296570418620217 7.1171370954556314 24.590749290936127 -2 1 0
847 3 0.3478237750455016 2.998566571933158 29.257469753794297 -2 1 0
832 3 2.9380171333989864 1.3269894535802889 29.269983179697807 -2 1 0
852 3 2.8867804145767946 3.7027167896304714 29.238236356360865 -2 1 0
288 2 0.37163404849621257 0.4846961056282636 29.263344257434618 -2 1 0
778 3 1.6230600131924247 2.136386178085991 26.899583843841768 -2 1 0
836 3 5.40940205844307 2.115653081759346 29.337866324498584 -2 1 0
759 2 6.759917131776103 3.823920974835912 27.013112444329916 -2 1 0
224 3 4.13241116462515 0.42226854759067656 26.933441688677004 -2 1 0
730 2 6.671148492046826 1.202247249291125 26.94572870952187 -2 1 0
754 3 4.077877472594089 2.876635169559859 26.937244611091465 -2 1 0
820 3 8.080653284233389 3.0057838499306113 29.334607973766314 -2 1 0
812 3 10.744636388844356 1.3452494421172618 29.284422674272314 -2 1 0
825 3 10.769045100705426 3.719050410301435 29.289083590214094 -2 1 0
733 2 9.449537819900355 2.1440478565102805 27.008923842031685 -2 1 0
274 2 8.074871859610635 0.41957667215511973 29.315626189683456 -2 1 0
816 3 13.29774431866108 2.22432869314276 29.258842704939443 -2 1 0
181 2 12.074554341483388 0.4184906891515282 26.919272238213992 -2 1 0
722 3 12.099935486547487 3.0301759609157544 27.008619795018646 -2 1 0
775 3 14.622695981354726 1.347704770526713 26.92515627576543 -3 1 0
798 3 14.596008660227625 3.766798915867434 26.924887201423957 -3 1 0
862 3 0.368332011599954 5.310068654048391 29.229293863781283 -2 1 0
863 2 0.32450059031218537 7.975218710259342 29.256918567929997 -2 1 0
853 3 2.907134299322907 6.110307687434523 29.21620798616923 -2 1 0
804 2 1.6061873976057641 7.045396856587196 26.944112068326167 -2 1 0
779 3 1.5948425632148218 4.47546544070553 26.91717691532066 -2 1 0
787 2 4.219165461439468 8.025561383236795 26.93156280391668 -2 1 0
760 3 6.836176655815867 6.3164088702002745 26.963802066514855 -2 1 0
837 3 5.4721912037966005 4.482274977559494 29.277553308524322 -2 1 0
857 2 5.524189825127759 7.064428153659635 29.229655484297353 -2 1 0
786 3 4.1445224217527015 5.31019346128792 26.997115521942977 -2 1 0
843 2 8.162188320151817 8.028865207134672 29.30120200426071 -2 1 0
734 3 9.480633081366788 4.636890664820965 27.018962382730702 -2 1 0
842 3 8.165316476506549 5.367254982666048 29.28044177635036 -2 1 0
826 2 10.790996189789084 6.217063324252647 29.318413040793406 -2 1 0
768 2 9.45796156863526 7.157927181703782 26.92334930258365 -2 1 0
799 3 14.548603410716217 6.1706939540352215 26.921924948069762 -3 1 0
742 2 12.078337225065042 8.019106079133918 26.91551909212151 -2 1 0
817 3 13.343916473484718 4.5821250800301625 29.254907453740614 -2 1 0
830 3 13.339576550054645 7.055376964968356 29.235810081928488 -2 1 0
741 3 12.106877756655622 5.401547960139599 26.927649036017176 -2 1 0
287 3 0.3539401022274116 0.4934666884531584 33.95814354130329 -2 1 0
846 3 0.3318959430215654 2.884862306239695 33.956412828221616 -2 1 0
848 3 1.6172246316222776 2.1179844787859015 31.630797246874735 -2 1 0
831 3 2.8610152521619256 1.2880583113507926 33.937415976370374 -2 1 0
850 3 2.892913413887277 3.59108852301489 33.96122215769564 -2 1 0
285 3 4.189189403849512 0.4367114979535095 31.616695543616938 -2 1 0
833 3 4.168998920635073 2.7729282798010533 31.62286103453955 -2 1 0
834 3 5.441460882414953 2.140337258201767 33.92200449924372 -2 1 0
838 3 6.787124725233293 3.6362346097874374 31.628093960717347 -2 1 0
818 3 6.685555623357822 1.2995371656706367 31.627754451814457 -2 1 0
273 2 8.060650959977275 0.4520817629474793 33.95747506669829 -2 1 0
821 2 9.385127796065248 2.2256931403262423 31.59948828393402 -2 1 0
819 3 8.074453869658381 3.0342819619195307 33.99471825778583 -2 1 0
823 3 10.736110333339322 3.8856979204878015 33.97466862239259 -2 1 0
811 2 10.723076470629403 1.3849245206579186 33.99048985150723 -2 1 0
260 2 12.029393444835776 0.47701735560118924 31.585832409819567 -2 1 0
858 3 14.5907601916001 3.6673650631706254 31.609065528693115 -3 1 0
845 3 14.60193440866333 1.340320529755901 31.64186693077791 -3 1 0
813 3 12.070148786671709 3.0325112381792856 31.60480659684829 -2 1 0
814 3 13.348283596817716 2.2062356478575427 33.950340300177906 -2 1 0
849 3 1.5914818829920219 4.432147375538712 31.590832676708516 -2 1 0
864 2 1.6519667542262308 7.0415015933705005 31.57379405801981 -2 1 0
860 3 0.31239077247120955 5.266001050746928 33.986701604510216 -2 1 0
861 2 0.3200625056965129 7.971998965719179 33.966148423020826 -2 1 0
851 2 2.922151270680752 6.105045546757058 33.96982667010935 -2 1 0
835 3 5.553426212601381 4.441357517624576 33.99845419739812 -2 1 0
854 2 4.218383502969016 5.245880142771725 31.57396412231596 -2 1 0
855 2 4.251372717960249 8.02490973033502 31.604404669418244 -2 1 0
856 2 5.573839425297311 7.034004850452979 33.991143708675956 -2 1 0
839 2 6.920800981468359 6.154800381874225 31.609058800766206 -2 1 0
841 2 8.169845999407546 7.990465556175454 33.94106676128661 -2 1 0
824 3 10.774368830272959 6.204993735252739 33.92081732594488 -2 1 0
840 3 8.179518051103265 5.32676324712798 33.98080079837098 -2 1 0
822 3 9.493165620532363 4.690334304797103 31.658797625031795 -2 1 0
844 3 9.479358767528957 7.085950143610807 31.656887661753498 -2 1 0
828 2 12.006970071535834 7.989154670043099 31.639846915133276 -2 1 0
829 3 13.289268868476496 7.031786447206698 33.99282539334028 -2 1 0
859 2 14.543689811515844 6.167127444994009 31.620793440224478 -3 1 0
827 3 12.012983903827653 5.3701798754891295 31.66759570773247 -2 1 0
815 3 13.294607818169657 4.584889750635195 33.9712208549045 -2 1 0
912 3 0.37593185803780393 2.7628217055179363 38.63617165632471 -2 1 0
917 3 1.5850520868165412 2.119350459797826 36.29167407862681 -2 1 0
892 3 2.8957465030649225 1.2669700773684305 38.69340201869161 -2 1 0
919 3 2.9583951969274054 3.628437991064879 38.59292875363552 -2 1 0
360 3 0.3977969274270899 0.4352160192576021 38.67628220231208 -2 1 0
896 3 4.173812807506911 2.962754911687007 36.283762689786045 -2 1 0
897 3 5.4474268331658084 2.016346194855041 38.710673841420046 -2 1 0
903 3 6.823193674327976 3.817951174032496 36.281364491691505 -2 1 0
875 2 6.776036657810037 1.3368285730242528 36.33788686533577 -2 1 0
356 2 4.172862710114255 0.43994708916905934 36.34966540483275 -2 1 0
340 2 8.057710883208223 0.4221322577127602 38.69690443594391 -2 1 0
876 3 8.139307866260104 2.9481041509067176 38.64907093866249 -2 1 0
881 3 9.41555866505134 2.1868539192624183 36.360293498016325 -2 1 0
883 3 10.73281248936847 3.622801661130321 38.632165489816714 -2 1 0
866 3 10.708218527955571 1.3123387688208326 38.65924415321562 -2 1 0
911 3 14.602601655618818 1.3541561065563723 36.29054335996064 -3 1 0
931 3 14.566899665577855 3.71103020537396 36.278515069138386 -3 1 0
871 3 13.324967789184425 2.119602639685366 38.64555499282756 -2 1 0
870 3 12.01712317728391 3.0103720885620304 36.31548983907148 -2 1 0
322 2 12.027525394981007 0.47975144930532726 36.33208526918836 -2 1 0
918 3 1.6516402432773918 4.419892925662612 36.26623238213554 -2 1 0
933 2 0.4032112606862639 5.2371551103022655 38.63223449143717 -2 1 0
934 2 0.38924224161802334 8.013747032593443 38.62480989093985 -2 1 0
936 2 1.65077994017568 7.007907234543058 36.31066592298897 -2 1 0
920 3 2.9855380422444324 6.07773047664293 38.58859966582391 -2 1 0
898 3 5.554624397657317 4.385210605960374 38.55806137270908 -2 1 0
924 3 4.26287557909023 5.259549513340943 36.320641955667185 -2 1 0
925 2 4.252552882891222 7.985130717491116 36.30029495745259 -2 1 0
926 2 5.5209313445499015 7.014873862797401 38.58035924576096 -2 1 0
904 3 6.847500117160127 6.141200351556598 36.284752225268015 -2 1 0
882 3 9.422509069182775 4.495637279079524 36.27265397193627 -2 1 0
905 3 8.115470800768646 5.265232195239666 38.57282787288748 -2 1 0
906 2 8.112764599849369 8.012991926325373 38.61303550533511 -2 1 0
908 2 9.418433519056684 7.048479462516002 36.254146571244945 -2 1 0
884 2 10.712873738912169 6.139939542546833 38.58124726303381 -2 1 0
872 3 13.320543334149148 4.427689315855895 38.58786260347933 -2 1 0
932 3 14.564768495608167 6.116729814435247 36.21759630822184 -3 1 0
888 3 12.061113023874952 5.326302932879861 36.23422132369974 -2 1 0
890 2 13.341595701161495 7.044523621951091 38.5973814573285 -2 1 0
889 2 12.041393291821729 7.985783449579564 36.238512141741985 -2 1 0
910 3 0.4027620307712343 2.8219325084464626 43.30939785361945 -2 1 0
913 3 1.663960518589335 1.9670202422581435 40.97244333885708 -2 1 0
915 3 2.8955294369424913 3.5246971954143644 43.316340609611444 -2 1 0
891 3 2.9340105398181255 1.1921942052575105 43.283402558442184 -2 1 0
358 3 0.410328955629575 0.4295237967056592 43.27196958081442 -2 1 0
893 3 4.217841988389379 2.6802724818344985 40.95994283744509 -2 1 0
894 3 5.496011433435989 1.8464121206150763 43.2963950946124 -2 1 0
873 3 6.742977941287485 1.2087134934688737 41.01962053983996 -2 1 0
899 3 6.87286033700787 3.5305818303003216 40.91751006098655 -2 1 0
355 3 4.19021782584187 0.3632237465343645 40.97459538751191 -2 1 0
874 3 8.114978727468804 2.6939964772368716 43.2224775073896 -2 1 0
877 3 9.429855515254886 2.093271583368104 40.98644079584783 -2 1 0
865 3 10.702916551902504 1.2813978531042303 43.270528263255834 -2 1 0
879 3 10.81225145721334 3.5906615696091824 43.29403973314116 -2 1 0
338 3 8.022890453277096 0.37030133592185865 43.29186978461067 -2 1 0
927 3 14.656545053419679 3.6475359449662497 40.984355390630505 -3 1 0
909 3 14.680256049451003 1.2779077614741077 40.97337831774332 -3 1 0
868 3 13.363406535706835 2.1116681556663477 43.30551754189897 -2 1 0
867 3 12.066539711665227 2.8595689788333356 40.97152696561628 -2 1 0
321 2 12.021506756820811 0.4156421897525158 40.97422189212104 -2 1 0
914 3 1.6492655595753718 4.348282559410511 40.99246843056356 -2 1 0
929 3 0.3695158582762777 5.215159758655928 43.27994892083225 -2 1 0
930 2 0.3717168623158737 8.026644399319805 43.31190792500999 -2 1 0
935 2 1.6322632773394556 7.022241979660867 40.95083697993901 -2 1 0
916 2 2.899681660983627 6.1110939294442215 43.3213698914297 -2 1 0
895 2 5.543376258653565 4.324145579612538 43.32590033964728 -2 1 0
921 2 4.213647243255466 5.19607250288179 40.89947897266925 -2 1 0
922 2 4.226631246370516 8.024570544683545 40.95003950983954 -2 1 0
923 2 5.543821599443816 7.093743754629698 43.31994457236561 -2 1 0
900 2 6.861177910249796 6.113011847196817 40.928181143185476 -2 1 0
878 3 9.450957560014333 4.391003170662111 40.939396907006554 -2 1 0
907 2 9.430972261947842 7.074035791283557 40.96880356165907 -2 1 0
901 2 8.198465531689108 5.215705282920946 43.351714715626514 -2 1 0
902 2 8.145000044157404 8.038345755476538 43.35370488681699 -2 1 0
880 2 10.758945879767696 6.1521382569598675 43.39306691383529 -2 1 0
887 2 13.342615240642852 7.066960278113264 43.30776671837768 -2 1 0
886 2 12.026830871027501 8.051535003477118 40.968920685705655 -2 1 0
928 3 14.651399657134819 6.111418377888046 41.00104217447126 -3 1 0
885 2 12.093047045095766 5.287277594806114 40.9636570961619 -2 1 0
869 3 13.400164825289886 4.42723879668799 43.32330585490151 -2 1 0
997 3 0.38792244226579775 2.955710334539625 48.01846723490343 -2 1 0
1004 3 1.6491063399383927 2.0721376435574723 45.64514047072298 -2 1 0
1006 3 2.908644351674716 3.6086202578563094 48.04326205388779 -2 1 0
971 3 2.9345770720472184 1.2899586208444125 47.96474661166905 -2 1 0
450 2 0.38066190267038263 0.4303039029548811 48.005329855604685 -2 1 0
977 3 4.188955885091162 2.7195872296887096 45.664608363567474 -2 1 0
978 3 5.443319127361859 2.1457278436203095 47.941798951955924 -2 1 0
951 3 6.705327355327112 1.234830940665933 45.57062929618163 -2 1 0
985 3 6.821569354579274 3.582983256383347 45.730546914685846 -2 1 0
445 3 4.231921513105775 0.3870199337328161 45.60044506989094 -2 1 0
952 3 8.086573767939468 3.0575484561852297 48.031696698511766 -2 1 0
959 2 9.380106227766538 2.1856129768180086 45.59241599491898 -2 1 0
939 2 10.661182050923243 1.3361786603815207 48.063549135134565 -2 1 0
961 3 10.713739436650945 3.87807690365971 48.03855080347536 -2 1 0
424 2 8.052429700354534 0.44567880604069465 47.97212021749889 -2 1 0
996 3 14.63335752262306 1.2784555901949695 45.597836969862975 -3 1 0
1021 3 14.620913792262161 3.62409440107566 45.63718523410118 -3 1 0
944 2 13.302901004679493 2.151756514135957 48.029169644257536 -2 1 0
943 3 12.063756428449103 2.9896730742753395 45.61469668090983 -2 1 0
402 2 12.011607548321221 0.43334533089604127 45.63058753953537 -2 1 0
1005 3 1.621227679166147 4.396542065158746 45.67948479194186 -2 1 0
1023 3 0.35806586609562485 5.2847084263100665 48.02733099995892 -2 1 0
1024 2 0.38206587122140384 8.041263655245231 48.035269607668575 -2 1 0
1026 2 1.65660986303678 7.076481275015729 45.682576083969316 -2 1 0
1007 2 2.9540817702262507 6.14213836895881 48.07723727783531 -2 1 0
979 3 5.572667385190332 4.467519383937025 48.095727546018225 -2 1 0
1011 2 4.246929464429357 5.2224529946071945 45.727891719007296 -2 1 0
1012 2 4.261072309994957 8.050004882558925 45.684216344967396 -2 1 0
1013 2 5.595308284974107 7.074181783330563 48.09317699776029 -2 1 0
986 2 6.929426788614262 6.1562555500367635 45.73958326980816 -2 1 0
960 3 9.52889493245299 4.658016234849728 45.78900520994507 -2 1 0
987 3 8.213996939276765 5.3749691802747925 48.098982501600034 -2 1 0
988 2 8.184032396686096 7.995194386381704 48.06473490547903 -2 1 0
990 3 9.471195689397522 7.0790589089013 45.74582450285138 -2 1 0
962 3 10.696642097980456 6.208126748010166 48.049892026885445 -2 1 0
945 3 13.267251750940643 4.585752699854914 48.026885548966305 -2 1 0
1022 2 14.586054321534164 6.141817908759568 45.67495511022019 -3 1 0
966 3 12.018531521934673 5.332745438300627 45.717714078270525 -2 1 0
968 2 13.259173584863797 7.1002840514577725 48.04298433161228 -2 1 0
967 2 11.962801331844998 8.021761016659841 45.695965373434184 -2 1 0
993 3 0.3222343435929344 2.908956452056978 52.6665114182773 -2 1 0
998 3 1.5813387482995305 2.153963253446102 50.366111055887465 -2 1 0
969 3 2.8210822213914404 1.3130491609459753 52.71659685710482 -2 1 0
1000 3 2.860716315114239 3.670258662035265 52.66756206509667 -2 1 0
448 3 0.3417057622008984 0.47475080180052026 52.66513904611567 -2 1 0
972 3 4.150999098912135 3.01291558825819 50.3157400091748 -2 1 0
973 2 5.432772273436375 2.2003904439917212 52.72437250408749 -2 1 0
980 3 6.824511416947119 3.9012229329232717 50.31709368509571 -2 1 0
947 2 6.801227091360706 1.364919767682454 50.322618352324454 -2 1 0