LAMMPS (22 Dec 2022)
OMP_NUM_THREADS environment is not set. Defaulting to 1 thread. (../comm.cpp:98)
  using 1 OpenMP thread(s) per MPI task
# general variables
variable	temperature equal 300 #change this to the temperature of interest
variable	nsteps_run equal 1000000

# general settings
units		metal
dimension 3
boundary	p p p

#processors      3 3 3
atom_style	atomic

# ------------------- ATOM DEFINE ------------------------------

variable        latparam equal 3.14489999999968             #variable

variable        xl equal 0
variable        xh equal 3
variable        yl equal 0
variable        yh equal 3
variable        zl equal 0
variable        zh equal 16

lattice         bcc ${latparam} orient x 1 1 -2 orient y 1 1 1 orient z 1 -1 0
lattice         bcc 3.14489999999968 orient x 1 1 -2 orient y 1 1 1 orient z 1 -1 0
Lattice spacing in x,y,z = 5.1356002 5.4471266 4.4475602
region          mybox block ${xl} ${xh} ${yl} ${yh} ${zl} ${zh}
region          mybox block 0 ${xh} ${yl} ${yh} ${zl} ${zh}
region          mybox block 0 3 ${yl} ${yh} ${zl} ${zh}
region          mybox block 0 3 0 ${yh} ${zl} ${zh}
region          mybox block 0 3 0 3 ${zl} ${zh}
region          mybox block 0 3 0 3 0 ${zh}
region          mybox block 0 3 0 3 0 16

create_box      5 mybox
Created orthogonal box = (0 0 0) to (15.406801 16.34138 71.160964)
  1 by 2 by 8 MPI processor grid

mass 1 180.948
mass 2 92.9064
mass 3 50.9415
mass 4 95.94
mass 5 183.84

create_atoms 3 box
Created 1152 atoms
  using lattice units in orthogonal box = (0 0 0) to (15.406801 16.34138 71.160964)
  create_atoms CPU = 0.001 seconds
set type 3 type/ratio 2 0.4 384
Setting atom values ...
  460 settings made for type/ratio

# ----------------------- FORCE FIELDS -----------------------
pair_style mlip mlip.ini
pair_coeff * *

# ------------------------- SETTINGS --------------------------
timestep 0.001
delete_atoms overlap 2 all all
System init for delete_atoms ...
Neighbor list info ...
  update: every = 1 steps, delay = 0 steps, check = yes
  max neighbors/atom: 2000, page size: 100000
  master list distance cutoff = 6.8
  ghost atom cutoff = 6.8
  binsize = 3.4, bins = 5 5 21
  2 neighbor lists, perpetual/occasional/extra = 1 1 0
  (1) command delete_atoms, occasional, copy from (2)
      attributes: full, newton on
      pair build: copy
      stencil: none
      bin: none
  (2) pair mlip, perpetual
      attributes: full, newton on
      pair build: full/bin/atomonly
      stencil: full/bin/3d
      bin: standard
Deleted 0 atoms, new total = 1152
velocity all create ${temperature} 4928459 rot yes dist gaussian
velocity all create 300 4928459 rot yes dist gaussian

fix 1 all atom/swap 1 1 114514 ${temperature} types 3 2
fix 1 all atom/swap 1 1 114514 300 types 3 2
fix temp all npt temp ${temperature} ${temperature} 0.1 iso 0 0 0.1
fix temp all npt temp 300 ${temperature} 0.1 iso 0 0 0.1
fix temp all npt temp 300 300 0.1 iso 0 0 0.1
thermo 1000
thermo_style custom step pe ke etotal time cpu tpcpu

dump 1 all custom 20000 dump.* id type x y z
run ${nsteps_run}
run 1000000
Neighbor list info ...
  update: every = 1 steps, delay = 0 steps, check = yes
  max neighbors/atom: 2000, page size: 100000
  master list distance cutoff = 6.8
  ghost atom cutoff = 6.8
  binsize = 3.4, bins = 5 5 21
  1 neighbor lists, perpetual/occasional/extra = 1 0 0
  (1) pair mlip, perpetual
      attributes: full, newton on
      pair build: full/bin/atomonly
      stencil: full/bin/3d
      bin: standard
Per MPI rank memory allocation (min/avg/max) = 4.345 | 4.351 | 4.355 Mbytes
   Step         PotEng         KinEng         TotEng          Time           CPU           T/CPU     
         0  -10812.172      44.633528     -10767.538      0              0              0            
      1000  -10809.424      46.255164     -10763.169      1              111.70413      0.0089522204 
      2000  -10814.375      45.362955     -10769.012      2              225.7547       0.0087680401 
      3000  -10814.193      47.63238      -10766.561      3              344.63511      0.0084118153 
      4000  -10816.122      44.386673     -10771.735      4              462.96953      0.0084506264 
      5000  -10815.555      43.488661     -10772.066      5              579.88315      0.0085533236 
      6000  -10817.275      44.280105     -10772.995      6              698.28884      0.0084455399 
      7000  -10818.868      45.050956     -10773.817      7              813.8331       0.0086546918 
      8000  -10818.442      44.63754      -10773.804      8              929.82319      0.0086214263 
      9000  -10817.331      46.57581      -10770.755      9              1045.1415      0.0086716532 
     10000  -10819.958      44.871899     -10775.086      10             1161.0414      0.0086281326 
     11000  -10818.163      46.432606     -10771.73       11             1277.8107      0.0085638937 
     12000  -10820.33       43.680691     -10776.649      12             1395.5538      0.0084930639 
     13000  -10821.273      42.899796     -10778.373      13             1512.9417      0.0085187707 
     14000  -10820.395      44.806197     -10775.589      14             1630.0036      0.0085424844 
     15000  -10823.097      43.616459     -10779.481      15             1747.3418      0.0085223754 
     16000  -10820.524      43.648231     -10776.875      16             1865.3001      0.0084775742 
     17000  -10823.18       44.465849     -10778.714      17             1985.2362      0.0083377734 
     18000  -10821.546      45.223443     -10776.323      18             2104.1734      0.0084077963 
     19000  -10823.691      42.344117     -10781.346      19             2223.0574      0.0084115604 
     20000  -10822.683      45.933891     -10776.749      20             2341.1693      0.0084665516 
     21000  -10824.254      43.91951      -10780.335      21             2458.4274      0.0085281962 
     22000  -10823.432      46.383871     -10777.049      22             2578.8442      0.0083044892 
     23000  -10822.567      41.371232     -10781.196      23             2699.3673      0.008297163  
     24000  -10823.438      45.791467     -10777.647      24             2820.7789      0.0082364447 
     25000  -10824.84       43.673059     -10781.167      25             2941.8382      0.0082604131 
     26000  -10822.483      45.285885     -10777.197      26             3064.2493      0.008169196  
     27000  -10824.563      43.364326     -10781.199      27             3189.6049      0.0079773021 
     28000  -10825.248      45.49529      -10779.753      28             3314.9356      0.0079788938 
     29000  -10825.872      44.174077     -10781.698      29             3443.8331      0.0077581031 
     30000  -10825.237      44.460207     -10780.776      30             3570.7756      0.0078775806 
     31000  -10822.823      42.863846     -10779.959      31             3699.6748      0.007758     
     32000  -10828.891      43.456646     -10785.435      32             3828.5748      0.0077579515 
     33000  -10826.884      45.250622     -10781.633      33             3957.1716      0.0077762428 
     34000  -10824.534      44.376588     -10780.158      34             4085.1551      0.0078135114 
     35000  -10826.818      44.969007     -10781.849      35             4213.4364      0.0077953657 
     36000  -10827.6        43.838193     -10783.762      36             4342.1286      0.0077704795 
     37000  -10826.152      44.808419     -10781.343      37             4473.3826      0.0076188137 
     38000  -10826.759      43.499221     -10783.26       38             4604.9452      0.0076009439 
     39000  -10824.891      43.964422     -10780.927      39             4736.1424      0.0076221146 
     40000  -10827.432      43.439887     -10783.992      40             4866.4762      0.0076726098 
     41000  -10826.353      44.768016     -10781.585      41             4997.6016      0.0076262847 
     42000  -10826.371      42.774639     -10783.596      42             5132.2833      0.0074249141 
     43000  -10826.777      45.581674     -10781.196      43             5262.7876      0.0076625816 
     44000  -10829.415      43.380123     -10786.035      44             5393.0901      0.0076744492 
     45000  -10827.757      43.969613     -10783.788      45             5522.6651      0.0077175412 
     46000  -10828.541      43.139556     -10785.402      46             5653.7058      0.0076312151 
     47000  -10825.184      41.714105     -10783.469      47             5786.6019      0.0075246744 
     48000  -10827.586      42.351246     -10785.235      48             5917.4902      0.007640106  
     49000  -10824.272      45.038469     -10779.233      49             6047.6109      0.0076851691 
     50000  -10829.721      43.812791     -10785.908      50             6179.3647      0.0075899131 
     51000  -10831.119      46.990715     -10784.128      51             6311.8959      0.0075453957 
     52000  -10829.462      45.675922     -10783.786      52             6444.6637      0.0075319446 
     53000  -10828.769      43.317386     -10785.452      53             6574.75        0.0076872057 
     54000  -10828.48       45.70279      -10782.778      54             6705.6898      0.0076371003 
     55000  -10831.018      44.930318     -10786.088      55             6836.6794      0.0076341916 
     56000  -10828.381      46.912163     -10781.469      56             6967.0638      0.0076696292 
     57000  -10828.961      44.527991     -10784.433      57             7097.6121      0.007659999  
     58000  -10829.897      43.659553     -10786.237      58             7227.9385      0.0076730443 
     59000  -10828.899      45.25332      -10783.646      59             7358.2115      0.0076761894 
     60000  -10829.157      44.606165     -10784.55       60             7490.074       0.0075836542 
     61000  -10830.32       44.1908       -10786.13       61             7619.8179      0.0077074895 
     62000  -10830.619      45.113966     -10785.505      62             7748.9919      0.0077414953 
     63000  -10828.589      42.611514     -10785.977      63             7878.0966      0.0077456567 
     64000  -10829.01       44.12031      -10784.89       64             8006.0433      0.0078157507 
     65000  -10829.536      42.971863     -10786.564      65             8135.6386      0.0077163276 
     66000  -10830.46       46.760324     -10783.699      66             8265.8967      0.0076770711 
     67000  -10830.879      44.940444     -10785.939      67             8394.2309      0.0077921512 
     68000  -10829.468      45.624607     -10783.843      68             8523.1231      0.0077584204 
     69000  -10830.408      44.146494     -10786.261      69             8649.9037      0.0078876435 
     70000  -10830.308      45.995264     -10784.312      70             8777.3082      0.0078490184 
     71000  -10832.523      45.490039     -10787.033      71             8905.6673      0.0077906409 
     72000  -10831.025      45.557566     -10785.467      72             9034.5027      0.0077618459 
     73000  -10830.137      42.037437     -10788.1        73             9163.1506      0.0077731546 
     74000  -10830.654      43.787623     -10786.866      74             9292.3774      0.0077383286 
     75000  -10829.389      45.252009     -10784.137      75             9420.3306      0.0078153618 
     76000  -10832.963      45.062029     -10787.9        76             9549.4169      0.0077467512 
     77000  -10830.432      45.222989     -10785.209      77             9678.7718      0.0077306723 
     78000  -10831.26       43.471952     -10787.788      78             9807.1076      0.0077920573 
     79000  -10831.105      43.791074     -10787.314      79             9933.676       0.0079008671 
     80000  -10831.544      43.542432     -10788.001      80             10062.983      0.0077335568 
     81000  -10830.442      43.641646     -10786.8        81             10191.96       0.0077533146 
     82000  -10833.796      45.123469     -10788.672      82             10322.661      0.0076510113 
     83000  -10830.433      43.754712     -10786.678      83             10454.925      0.0075606299 
     84000  -10830.839      44.623351     -10786.216      84             10587.597      0.007537396  
     85000  -10833.044      45.466522     -10787.577      85             10718.292      0.0076514006 
     86000  -10830.958      45.222343     -10785.735      86             10848.59       0.0076747491 
     87000  -10833.258      45.146763     -10788.112      87             10982.648      0.0074594198 
     88000  -10832.591      45.784735     -10786.806      88             11114.553      0.0075812148 
     89000  -10832.072      45.765425     -10786.307      89             11245.479      0.0076379306 
     90000  -10832.877      46.908756     -10785.969      90             11377.033      0.0076014268 
     91000  -10832.549      44.653859     -10787.896      91             11507.844      0.0076446477 
     92000  -10832.403      45.988713     -10786.414      92             11638.883      0.0076312677 
     93000  -10831.319      46.04769      -10785.271      93             11768.376      0.0077224424 
     94000  -10831.363      44.264916     -10787.098      94             11900.952      0.007542831  
     95000  -10830.614      43.679689     -10786.934      95             12032.452      0.0076045656 
     96000  -10831.911      44.859902     -10787.051      96             12163.409      0.0076361101 
     97000  -10831.41       44.220112     -10787.19       97             12294.431      0.0076323144 
     98000  -10831.946      45.568009     -10786.378      98             12425.52       0.0076283829 
     99000  -10832.93       44.181587     -10788.748      99             12558.957      0.0074941841 
    100000  -10832.804      44.03213      -10788.772      100            12690.435      0.0076058532 
    101000  -10831.515      44.41119      -10787.104      101            12820.644      0.0076799294 
    102000  -10833.797      42.764006     -10791.033      102            12949.441      0.0077641704 
    103000  -10832.708      45.47601      -10787.232      103            13078.018      0.0077774283 
    104000  -10834.057      43.594404     -10790.463      104            13206.475      0.0077847403 
    105000  -10830.381      43.921823     -10786.459      105            13334.573      0.0078065356 
    106000  -10834.299      44.071605     -10790.228      106            13462.1        0.0078414255 
    107000  -10833.316      45.089136     -10788.226      107            13591.769      0.0077119674 
    108000  -10832.784      44.625783     -10788.159      108            13723.686      0.007580495  
    109000  -10832.19       44.582722     -10787.607      109            13856.008      0.0075573607 
    110000  -10831.752      44.851447     -10786.901      110            13989.971      0.0074647456 
    111000  -10832.437      42.643567     -10789.794      111            14122.952      0.007519877  
    112000  -10833.512      45.871077     -10787.641      112            14253.613      0.0076534046 
    113000  -10834.882      44.012072     -10790.869      113            14385.763      0.0075671485 
    114000  -10832.294      43.761451     -10788.533      114            14517.86       0.0075702034 
    115000  -10831.409      45.785926     -10785.623      115            14649.864      0.0075754746 
    116000  -10834.556      45.341264     -10789.214      116            14782.069      0.0075640652 
    117000  -10832.2        46.091269     -10786.109      117            14914.924      0.0075269554 
    118000  -10834.152      45.28069      -10788.872      118            15047.855      0.0075227353 
    119000  -10831.728      45.300657     -10786.427      119            15181.633      0.0074750672 
    120000  -10832.264      43.600049     -10788.664      120            15316.094      0.0074370796 
    121000  -10832.918      44.794657     -10788.123      121            15448.849      0.0075327083 
    122000  -10834.883      45.478875     -10789.404      122            15581.828      0.0075199785 
    123000  -10833.353      43.760991     -10789.592      123            15715.023      0.0075077905 
    124000  -10830.34       44.101902     -10786.239      124            15848.277      0.0075044652 
    125000  -10834.132      45.760868     -10788.371      125            15981.481      0.0075072908 
    126000  -10836.139      45.295083     -10790.844      126            16113.99       0.0075466492 
    127000  -10832.371      44.054787     -10788.316      127            16247.239      0.0075046987 
    128000  -10834.096      43.574038     -10790.522      128            16381.48       0.0074492936 
    129000  -10832.447      45.050651     -10787.396      129            16515.015      0.0074886692 
    130000  -10834.645      44.341337     -10790.304      130            16649.906      0.0074134446 
    131000  -10833.915      45.123045     -10788.792      131            16783.599      0.0074797762 
    132000  -10832.953      45.395522     -10787.558      132            16918.108      0.0074344533 
    133000  -10832.175      44.07268      -10788.102      133            17052.486      0.0074417018 
    134000  -10831.64       45.422872     -10786.217      134            17187.536      0.0074046991 
    135000  -10833.375      44.5189       -10788.856      135            17317.792      0.007677145  
    136000  -10832.173      44.164432     -10788.009      136            17448.917      0.0076263192 
    137000  -10832.391      45.262452     -10787.129      137            17582.175      0.0075042483 
    138000  -10833.355      44.340971     -10789.014      138            17715.242      0.0075150116 
    139000  -10834.366      45.442392     -10788.923      139            17849.239      0.0074628329 
    140000  -10835.21       43.636586     -10791.573      140            17982.494      0.0075044372 
    141000  -10833.225      44.87784      -10788.347      141            18117.107      0.0074287089 
    142000  -10832.604      43.006227     -10789.598      142            18251.822      0.0074230907 
    143000  -10832.528      44.626466     -10787.901      143            18385.668      0.0074712582 
    144000  -10833.381      43.875598     -10789.506      144            18519.46       0.0074743003 
    145000  -10832.904      46.246124     -10786.657      145            18652.737      0.0075031341 
    146000  -10834.366      44.425694     -10789.94       146            18785.123      0.0075537045 
    147000  -10834.739      46.798249     -10787.941      147            18916.885      0.0075893972 
    148000  -10833.151      44.954887     -10788.196      148            19048.006      0.0076265538 
    149000  -10833.188      44.537175     -10788.65       149            19180.214      0.007563844  
    150000  -10833.159      42.419815     -10790.739      150            19311.293      0.0076289918 
    151000  -10832.048      44.917508     -10787.13       151            19441.308      0.0076914251 
    152000  -10833.733      43.596393     -10790.136      152            19574.877      0.0074867769 
    153000  -10832.496      47.0285       -10785.468      153            19708.873      0.0074628948 
    154000  -10835.277      44.529737     -10790.747      154            19842.952      0.0074583166 
    155000  -10831.928      44.157965     -10787.77       155            19977.02       0.0074588785 
    156000  -10835.15       44.717911     -10790.432      156            20110.466      0.0074936434 
    157000  -10833.92       44.943452     -10788.977      157            20244.167      0.0074794139 
    158000  -10833.333      43.243399     -10790.09       158            20377.275      0.0075126934 
    159000  -10833.099      43.975702     -10789.124      159            20510.78       0.007490323  
    160000  -10835.089      42.95629      -10792.133      160            20644.475      0.0074797276 
    161000  -10834.956      46.303102     -10788.653      161            20778.703      0.007450036  
    162000  -10835.012      43.94374      -10791.068      162            20912.789      0.0074578555 
    163000  -10835.034      45.343611     -10789.69       163            21047.702      0.0074122019 
    164000  -10831.847      45.00752      -10786.84       164            21180.27       0.0075432925 
    165000  -10834.258      42.945977     -10791.312      165            21313.141      0.0075260839 
    166000  -10832.485      44.305128     -10788.18       166            21444.134      0.0076339912 
    167000  -10835.501      43.740861     -10791.76       167            21575.866      0.0075911791 
    168000  -10834.082      45.155544     -10788.926      168            21705.43       0.0077181968 
    169000  -10833.717      44.20529      -10789.512      169            21834.248      0.0077628878 
    170000  -10834.11       45.026864     -10789.083      170            21958.405      0.0080543056 
    171000  -10834.622      44.668189     -10789.954      171            22084.823      0.0079103124 
    172000  -10835.005      43.906551     -10791.099      172            22210.131      0.0079803001 
    173000  -10835.757      45.257221     -10790.5        173            22336.107      0.0079380264 
    174000  -10832.785      46.257844     -10786.528      174            22467.459      0.0076131369 
    175000  -10836.257      44.282514     -10791.974      175            22595.949      0.0077827186 
    176000  -10834.676      44.65944      -10790.016      176            22727.253      0.0076158907 
    177000  -10835.765      44.106542     -10791.658      177            22855.997      0.0077673608 
    178000  -10834.99       45.975423     -10789.015      178            22988.813      0.0075292322 
    179000  -10834.597      43.071294     -10791.526      179            23120.15       0.007614006  
    180000  -10836.226      43.989341     -10792.236      180            23251.626      0.0076059224 
    181000  -10833.108      41.207382     -10791.901      181            23384.373      0.0075331364 
    182000  -10834.426      44.330603     -10790.096      182            23516.45       0.0075713238 
    183000  -10835.882      44.339525     -10791.542      183            23648.488      0.0075735949 
    184000  -10835.211      44.125551     -10791.086      184            23780.16       0.0075946575 
    185000  -10834.316      44.55936      -10789.756      185            23913.252      0.0075135848 
    186000  -10835.37       45.101215     -10790.269      186            24045.316      0.0075720991 
    187000  -10837.436      44.992199     -10792.444      187            24176.8        0.0076054931 
    188000  -10832.693      43.681329     -10789.012      188            24308.659      0.0075838056 
    189000  -10836.113      42.087573     -10794.026      189            24440.651      0.0075762541 
    190000  -10834.791      44.306152     -10790.485      190            24572.346      0.0075932815 
    191000  -10837.055      46.671249     -10790.383      191            24703.38       0.0076316261 
    192000  -10832.915      45.198618     -10787.716      192            24833.222      0.007701677  
    193000  -10835.88       44.918341     -10790.962      193            24963.349      0.0076847979 
    194000  -10834.929      42.785535     -10792.144      194            25094.378      0.0076318697 
    195000  -10834.22       45.124962     -10789.095      195            25226.655      0.0075599027 
    196000  -10836.991      45.224831     -10791.766      196            25355.758      0.0077457576 
    197000  -10834.893      44.462175     -10790.431      197            25484.579      0.0077626843 
    198000  -10835.741      43.796646     -10791.944      198            25611.28       0.0078926075 
    199000  -10835.416      45.626791     -10789.789      199            25738.181      0.0078801818 
    200000  -10834.825      45.629349     -10789.196      200            25864.986      0.0078861391 
    201000  -10834.6        45.090583     -10789.51       201            25991.595      0.007898304  
    202000  -10838.096      43.412816     -10794.683      202            26117.15       0.0079646331 
    203000  -10836.322      46.982396     -10789.34       203            26242.553      0.0079743075 
    204000  -10835.922      44.382655     -10791.539      204            26369.095      0.0079025164 
    205000  -10836.346      43.013722     -10793.333      205            26495.108      0.0079356997 
    206000  -10835.647      45.395143     -10790.252      206            26621.069      0.007938957  
    207000  -10835.272      43.921038     -10791.351      207            26747.377      0.0079171218 
    208000  -10834.343      45.615137     -10788.728      208            26873.125      0.0079524357 
    209000  -10836.401      41.436591     -10794.964      209            26999.481      0.0079141743 
    210000  -10836.484      45.653609     -10790.831      210            27126.441      0.0078764824 
    211000  -10834.362      44.807096     -10789.555      211            27252.329      0.0079435579 
    212000  -10837.73       46.014072     -10791.716      212            27377.942      0.0079609288 
    213000  -10835.193      44.92866      -10790.264      213            27505.136      0.0078620479 
    214000  -10835.483      43.926172     -10791.556      214            27631.332      0.0079241802 
    215000  -10835.934      44.002474     -10791.932      215            27756.419      0.0079944455 
    216000  -10835.628      43.788893     -10791.839      216            27884.666      0.0077974075 
    217000  -10835.567      42.745661     -10792.821      217            28010.844      0.0079253568 
    218000  -10835.712      45.569875     -10790.142      218            28136.715      0.0079446081 
    219000  -10837.132      45.385971     -10791.746      219            28262.606      0.0079434142 
    220000  -10835.153      45.788849     -10789.364      220            28388.821      0.0079229492 
    221000  -10836.825      43.512795     -10793.312      221            28512.626      0.0080772644 
    222000  -10835.603      45.251001     -10790.352      222            28636.18       0.0080936016 
    223000  -10838.673      44.993744     -10793.68       223            28760.56       0.0080398532 
    224000  -10834.451      44.411361     -10790.04       224            28884.908      0.0080419725 
    225000  -10833.851      45.478032     -10788.373      225            29008.451      0.0080943551 
    226000  -10836.155      44.628619     -10791.526      226            29132.488      0.0080620759 
    227000  -10836.032      45.775478     -10790.257      227            29256.502      0.0080636547 
    228000  -10835.258      44.283985     -10790.974      228            29380.873      0.0080404645 
    229000  -10837.981      42.960985     -10795.02       229            29505.259      0.0080394654 
    230000  -10835.705      45.681517     -10790.024      230            29628.201      0.0081339266 
    231000  -10835.209      42.316354     -10792.893      231            29751.282      0.0081246858 
    232000  -10836.47       44.115689     -10792.354      232            29874.243      0.0081326841 
    233000  -10834.284      44.127402     -10790.157      233            29998.448      0.0080512117 
    234000  -10837.712      44.878747     -10792.833      234            30123.65       0.0079870981 
    235000  -10834.488      45.01626      -10789.472      235            30248.311      0.008021737  
    236000  -10835.159      43.414159     -10791.745      236            30372.201      0.0080716959 
    237000  -10835.721      44.833978     -10790.887      237            30496.198      0.0080647201 
    238000  -10836.291      43.486528     -10792.805      238            30620.334      0.008055665  
    239000  -10834.141      42.720738     -10791.42       239            30745.83       0.0079684099 
    240000  -10834.006      46.158332     -10787.848      240            30869.991      0.008054011  
    241000  -10835.385      46.056267     -10789.328      241            30993.437      0.0081007146 
    242000  -10838.02       47.341071     -10790.679      242            31118.244      0.0080123704 
    243000  -10835.311      45.535505     -10789.775      243            31242.955      0.0080185675 
    244000  -10837.286      42.603528     -10794.683      244            31367.916      0.008002481  
    245000  -10836.438      45.384436     -10791.054      245            31492.176      0.0080476599 
    246000  -10837.432      43.41261      -10794.019      246            31616.552      0.0080401052 
    247000  -10836.635      43.911347     -10792.724      247            31741.173      0.0080243263 
    248000  -10836.517      45.364909     -10791.152      248            31865.217      0.0080616489 
    249000  -10836.05       43.282977     -10792.767      249            31990.355      0.007991205  
    250000  -10835.044      45.938838     -10789.105      250            32115.343      0.0080007694 
    251000  -10837.134      44.557416     -10792.577      251            32238.758      0.0081027185 
    252000  -10833.723      45.271123     -10788.452      252            32362.581      0.0080760808 
    253000  -10835.936      44.46643      -10791.47       253            32486.628      0.0080614617 
    254000  -10834.425      45.314326     -10789.111      254            32610.661      0.008062373  
    255000  -10835.502      42.860877     -10792.641      255            32734.091      0.0081017361 
    256000  -10836.079      45.19437      -10790.884      256            32857.374      0.0081114133 
    257000  -10835.617      43.95502      -10791.662      257            32981.495      0.0080566612 
    258000  -10836.916      42.594457     -10794.321      258            33105.46       0.0080668139 
    259000  -10833.379      44.072378     -10789.307      259            33229.205      0.0080810851 
    260000  -10835.397      43.330277     -10792.066      260            33351.558      0.0081730679 
    261000  -10836.351      44.979196     -10791.372      261            33473.418      0.0082061629 
    262000  -10831.356      45.960665     -10785.395      262            33594.53       0.0082568191 
    263000  -10836.122      43.773606     -10792.348      263            33716.75       0.0081820078 
    264000  -10837.369      44.788454     -10792.581      264            33838.522      0.0082120196 
    265000  -10835.065      44.25023      -10790.815      265            33958.198      0.0083559133 
    266000  -10836.398      44.369287     -10792.029      266            34075.497      0.008525205  
    267000  -10835.013      45.543316     -10789.469      267            34193.148      0.0084997472 
    268000  -10836.081      45.211876     -10790.869      268            34312.133      0.0084044352 
    269000  -10835.497      46.404664     -10789.092      269            34433.686      0.0082268258 
    270000  -10836.268      43.589764     -10792.678      270            34555.444      0.0082130214 
    271000  -10835.824      44.870303     -10790.954      271            34678.091      0.008153499  
    272000  -10837.734      44.350515     -10793.384      272            34804.338      0.0079209861 
    273000  -10835.476      45.308424     -10790.168      273            34932.191      0.0078214747 
    274000  -10835.591      42.870748     -10792.72       274            35061.14       0.0077549688 
    275000  -10834.166      43.632959     -10790.534      275            35186.598      0.0079707882 
    276000  -10837.351      44.456349     -10792.894      276            35313.606      0.0078735707 
    277000  -10835.793      44.152702     -10791.64       277            35442.986      0.0077291309 
    278000  -10836.877      45.289055     -10791.588      278            35570.347      0.0078517414 
    279000  -10834.82       44.535472     -10790.285      279            35696.777      0.0079094985 
    280000  -10837.759      44.510496     -10793.248      280            35822.445      0.0079574573 
    281000  -10837.463      44.862593     -10792.601      281            35949.813      0.0078512591 
    282000  -10837.254      44.782857     -10792.472      282            36074.828      0.0079990844 
    283000  -10837.715      44.818891     -10792.897      283            36198.48       0.008087167  
    284000  -10838.126      45.992459     -10792.134      284            36321.349      0.0081387596 
    285000  -10837.339      44.541009     -10792.798      285            36447.81       0.0079075684 
    286000  -10836.208      44.61587      -10791.592      286            36572.219      0.0080380081 
    287000  -10838.196      44.194956     -10794.001      287            36694.655      0.008167526  
    288000  -10836.542      45.598988     -10790.943      288            36817.078      0.0081683952 
    289000  -10838.117      45.068027     -10793.049      289            36937.638      0.0082946361 
    290000  -10837.704      45.251675     -10792.453      290            37060.91       0.008112155  
    291000  -10835.827      44.078432     -10791.749      291            37183.647      0.0081475191 
    292000  -10838.163      43.464753     -10794.699      292            37305.445      0.0082103073 
    293000  -10836.532      45.566251     -10790.966      293            37425.949      0.0082984705 
    294000  -10835.408      45.479973     -10789.928      294            37546.592      0.0082889174 
    295000  -10836.55       43.785588     -10792.764      295            37667.274      0.008286229  
    296000  -10833.946      45.980213     -10787.966      296            37788.115      0.0082753591 
    297000  -10836.552      42.8959       -10793.656      297            37909.303      0.0082516137 
    298000  -10836.804      46.26807      -10790.536      298            38029.883      0.0082932341 
    299000  -10837.317      43.857894     -10793.459      299            38150.221      0.0083099798 
    300000  -10835.13       45.338035     -10789.791      300            38271.088      0.0082735386 
    301000  -10839.149      45.499759     -10793.649      301            38392.172      0.0082587461 
    302000  -10837.389      45.228296     -10792.161      302            38512.152      0.0083346897 
    303000  -10834.839      46.325705     -10788.514      303            38632.407      0.0083156553 
    304000  -10837.251      44.791108     -10792.46       304            38752.673      0.0083149006 
    305000  -10835.183      45.009691     -10790.173      305            38872.4        0.0083523425 
    306000  -10836.516      45.819349     -10790.697      306            38993.032      0.0082896888 
    307000  -10836.569      44.468328     -10792.101      307            39114.245      0.0082499586 
    308000  -10836.32       45.078253     -10791.242      308            39235.238      0.0082649344 
    309000  -10835.259      45.242312     -10790.017      309            39355.392      0.0083226502 
    310000  -10836.49       44.817817     -10791.672      310            39476.955      0.0082261593 
    311000  -10836.941      45.646626     -10791.294      311            39601.861      0.008006063  
    312000  -10838.326      43.745634     -10794.581      312            39728.392      0.007903191  
    313000  -10836.846      44.824374     -10792.021      313            39853.432      0.0079974249 
    314000  -10836.597      42.550827     -10794.046      314            39982.721      0.0077346114 
    315000  -10835.694      43.252688     -10792.441      315            40111.218      0.0077822597 
    316000  -10835.222      45.977793     -10789.244      316            40240.276      0.0077484463 
    317000  -10836.549      43.820058     -10792.729      317            40369.608      0.0077320689 
    318000  -10835.724      45.927519     -10789.797      318            40499.75       0.0076839359 
    319000  -10837.491      44.127047     -10793.364      319            40631.943      0.0075647039 
    320000  -10837.162      46.347231     -10790.815      320            40764.325      0.0075538516 
    321000  -10840.409      44.504774     -10795.904      321            40897.366      0.0075164734 
    322000  -10835.64       43.622244     -10792.018      322            41029.583      0.0075633237 
    323000  -10835.358      44.481471     -10790.876      323            41162.179      0.0075417439 
    324000  -10837.856      43.036323     -10794.82       324            41294.692      0.0075464337 
    325000  -10835.92       45.821935     -10790.098      325            41430.015      0.0073896888 
    326000  -10837.822      43.579056     -10794.243      326            41562.213      0.0075644095 
    327000  -10837.19       46.535693     -10790.654      327            41695.648      0.0074943028 
    328000  -10836.59       44.461133     -10792.129      328            41828.859      0.0075068667 
    329000  -10837.696      44.728753     -10792.967      329            41965.644      0.0073107427 
    330000  -10838.929      44.024388     -10794.905      330            42102.382      0.0073132902 
    331000  -10835.657      43.613351     -10792.044      331            42239.543      0.0072907135 
    332000  -10837.287      43.736916     -10793.55       332            42376.449      0.00730428   
    333000  -10836.675      43.986102     -10792.689      333            42512.769      0.0073356755 
    334000  -10838.339      44.556869     -10793.782      334            42651.486      0.0072089256 
    335000  -10837.66       44.962558     -10792.698      335            42787.697      0.0073415068 
    336000  -10836.355      44.766194     -10791.589      336            42925.236      0.0072707106 
    337000  -10837.385      44.417534     -10792.967      337            43062.387      0.0072912356 
    338000  -10836.127      47.337351     -10788.79       338            43199.866      0.00727382   
    339000  -10837.816      44.023282     -10793.793      339            43334.658      0.0074188341 
    340000  -10837.032      44.20919      -10792.823      340            43466.972      0.0075577961 
    341000  -10837.273      43.917141     -10793.356      341            43599.171      0.0075643391 
    342000  -10835.619      43.044537     -10792.575      342            43732.013      0.0075277098 
    343000  -10838.231      45.330238     -10792.9        343            43866.246      0.0074497505 
    344000  -10837.175      45.635973     -10791.54       344            43997.009      0.007647431  
    345000  -10838.496      44.329188     -10794.167      345            44126.495      0.0077228334 
    346000  -10836.517      44.880455     -10791.636      346            44257.011      0.0076619233 
    347000  -10835.489      45.217735     -10790.272      347            44386.524      0.0077212055 
    348000  -10838.378      44.496183     -10793.882      348            44516.641      0.0076853804 
    349000  -10837.857      44.733626     -10793.124      349            44646.385      0.0077075013 
    350000  -10837.095      44.198845     -10792.896      350            44774.654      0.0077961522 
    351000  -10838.755      46.930567     -10791.825      351            44902.964      0.0077936124 
    352000  -10838.642      43.682818     -10794.959      352            45030.707      0.0078282293 
    353000  -10836.822      44.359434     -10792.462      353            45157.246      0.0079026474 
    354000  -10838.447      45.618885     -10792.828      354            45284.204      0.0078766626 
    355000  -10835.685      45.48209      -10790.203      355            45412.628      0.0077866624 
    356000  -10837.875      43.510869     -10794.364      356            45541.101      0.0077837624 
    357000  -10836.562      45.56167      -10791.001      357            45667.564      0.0079074571 
    358000  -10837.326      46.413792     -10790.912      358            45793.646      0.0079313416 
    359000  -10838.135      45.575805     -10792.559      359            45918.912      0.0079830037 
    360000  -10838.626      43.178347     -10795.448      360            46041.521      0.0081560249 
    361000  -10836.328      44.988884     -10791.339      361            46163.546      0.0081950097 
    362000  -10837.027      45.624536     -10791.403      362            46288.178      0.0080236554 
    363000  -10836.92       43.911362     -10793.009      363            46412.887      0.0080186728 
    364000  -10836.345      44.548657     -10791.796      364            46535.05       0.0081857908 
    365000  -10839.487      46.444886     -10793.042      365            46655.517      0.0083010137 
    366000  -10836.349      45.529622     -10790.819      366            46777.702      0.0081843161 
    367000  -10838.703      45.474942     -10793.228      367            46899.113      0.0082364716 
    368000  -10835.753      45.147054     -10790.606      368            47019.778      0.0082873803 
    369000  -10837.581      43.229539     -10794.351      369            47139.234      0.0083713168 
    370000  -10838.094      44.982199     -10793.112      370            47258.664      0.0083730674 
    371000  -10836.587      44.664916     -10791.922      371            47378.095      0.0083730742 
    372000  -10837.859      45.49245      -10792.366      372            47495.794      0.0084962116 
    373000  -10836.91       43.398466     -10793.512      373            47613.678      0.0084829689 
    374000  -10836.888      41.789004     -10795.099      374            47733.614      0.008337777  
    375000  -10838.41       45.685241     -10792.725      375            47853.02       0.0083748034 
    376000  -10837.228      47.062972     -10790.165      376            47971.934      0.0084094311 
    377000  -10838.348      43.722894     -10794.625      377            48091.526      0.0083617472 
    378000  -10835.605      43.965698     -10791.639      378            48212.549      0.0082628657 
    379000  -10837.521      44.147685     -10793.373      379            48333.461      0.0082705158 
    380000  -10837.875      44.210714     -10793.664      380            48451.971      0.0084381016 
    381000  -10836.575      44.008454     -10792.566      381            48572.036      0.0083287928 
    382000  -10836.672      44.761552     -10791.91       382            48695.24       0.0081166591 
    383000  -10835.517      44.625011     -10790.892      383            48817.109      0.0082054882 
    384000  -10838.473      45.247609     -10793.225      384            48938.658      0.0082271808 
    385000  -10834.831      44.605773     -10790.225      385            49060.559      0.0082033594 
    386000  -10838.029      44.669872     -10793.36       386            49183.011      0.0081664325 
    387000  -10835.687      45.811183     -10789.876      387            49303.785      0.0082799205 
    388000  -10836.137      44.347398     -10791.79       388            49427.085      0.0081103076 
    389000  -10837.104      43.954159     -10793.15       389            49552.108      0.0079985325 
    390000  -10837.741      46.234283     -10791.506      390            49677.004      0.0080066632 
    391000  -10837.685      41.862929     -10795.822      391            49801.922      0.0080052559 
    392000  -10835.506      43.543033     -10791.963      392            49925.867      0.0080681089 
    393000  -10836.777      43.693314     -10793.083      393            50050.892      0.0079984033 
    394000  -10836.288      42.599931     -10793.688      394            50174.509      0.0080894899 
    395000  -10835.902      44.624389     -10791.278      395            50300.785      0.0079191731 
    396000  -10835.159      45.551095     -10789.608      396            50430.067      0.0077350304 
    397000  -10838.364      44.795891     -10793.568      397            50559.538      0.0077236996 
    398000  -10837.085      44.645761     -10792.44       398            50688.932      0.0077283644 
    399000  -10836.788      45.477963     -10791.31       399            50821.059      0.0075684545 
    400000  -10837.534      45.201349     -10792.333      400            50955.493      0.0074385974 
    401000  -10836.505      46.015152     -10790.49       401            51089.794      0.0074459555 
    402000  -10838.981      45.056544     -10793.925      402            51223.298      0.0074904197 
    403000  -10835.804      44.690545     -10791.113      403            51357.519      0.0074504159 
    404000  -10839.201      44.063064     -10795.138      404            51492.81       0.0073914628 
    405000  -10836.869      45.38621      -10791.482      405            51629.439      0.0073190956 
    406000  -10838.141      44.838387     -10793.303      406            51765.56       0.0073463986 
    407000  -10837.295      42.647233     -10794.648      407            51903.31       0.0072595471 
    408000  -10837.778      47.307546     -10790.47       408            52041.171      0.0072536866 
    409000  -10836.73       42.843362     -10793.886      409            52179.558      0.0072260846 
    410000  -10839.093      45.528216     -10793.565      410            52316.583      0.0072979384 
    411000  -10837.683      45.876014     -10791.807      411            52454.46       0.0072528316 
    412000  -10838.127      44.367023     -10793.76       412            52591.926      0.0072745573 
    413000  -10836.418      44.511784     -10791.906      413            52727.296      0.0073871601 
    414000  -10836.406      46.569053     -10789.837      414            52863.27       0.0073543353 
    415000  -10837.9        44.529396     -10793.371      415            53000.718      0.0072754846 
    416000  -10837.941      45.434308     -10792.507      416            53137.704      0.0073000212 
    417000  -10836.092      44.487964     -10791.604      417            53273.042      0.0073889162 
    418000  -10838.757      44.745948     -10794.011      418            53409.378      0.0073348329 
    419000  -10835.421      46.35149      -10789.069      419            53545.438      0.0073496767 
    420000  -10837.941      45.280276     -10792.661      420            53682.014      0.0073219447 
    421000  -10837.091      45.117228     -10791.974      421            53818.925      0.0073039877 
    422000  -10835.113      43.325241     -10791.788      422            53957.915      0.007194748  
    423000  -10837.103      45.207212     -10791.896      423            54095.576      0.0072642466 
    424000  -10835.989      47.085757     -10788.903      424            54232.729      0.0072911204 
    425000  -10837.518      44.062563     -10793.455      425            54370.256      0.0072713255 
    426000  -10838.784      43.807275     -10794.976      426            54508.467      0.0072352834 
    427000  -10835.33       43.781671     -10791.548      427            54645.727      0.0072854647 
    428000  -10837.941      45.165231     -10792.776      428            54784.014      0.0072313449 
    429000  -10833.578      46.094772     -10787.483      429            54923.191      0.007185086  
    430000  -10838.952      45.614389     -10793.338      430            55062.368      0.0071850852 
    431000  -10835.223      45.104159     -10790.119      431            55200.231      0.0072535593 
    432000  -10836.86       44.243232     -10792.617      432            55338.059      0.0072554471 
    433000  -10837.816      43.389297     -10794.427      433            55477.166      0.0071886913 
    434000  -10836.224      44.802123     -10791.422      434            55616.262      0.0071892698 
    435000  -10838.595      45.171295     -10793.424      435            55755.208      0.0071970511 
    436000  -10836.44       45.346519     -10791.093      436            55894.788      0.0071643817 
    437000  -10836.546      42.41894      -10794.127      437            56034.662      0.0071492924 
    438000  -10836.753      46.108849     -10790.645      438            56174.382      0.0071571568 
    439000  -10838.228      44.356118     -10793.872      439            56313.191      0.0072041222 
    440000  -10837.866      45.531354     -10792.335      440            56452.492      0.0071787158 
    441000  -10838.994      43.759719     -10795.234      441            56592.032      0.0071664221 
    442000  -10837.577      46.376926     -10791.2        442            56731.363      0.0071771489 
    443000  -10839.025      44.100324     -10794.925      443            56871.068      0.0071579477 
    444000  -10838.66       45.991606     -10792.668      444            57010.767      0.0071582297 
    445000  -10836.592      44.255793     -10792.336      445            57150.041      0.007180072  
    446000  -10838.185      46.639906     -10791.545      446            57287.447      0.0072776956 
    447000  -10836.688      45.418041     -10791.27       447            57425.701      0.0072330962 
    448000  -10838.557      43.931886     -10794.625      448            57564.728      0.007192813  
    449000  -10835.456      45.1452       -10790.311      449            57703.951      0.0071827651 
    450000  -10837.65       44.504311     -10793.145      450            57843.274      0.0071775443 
    451000  -10838.487      44.017335     -10794.47       451            57982.679      0.0071733574 
    452000  -10837.321      45.483011     -10791.838      452            58122.2        0.0071673879 
    453000  -10836.192      43.460824     -10792.732      453            58260.491      0.0072310828 
    454000  -10838.476      43.662555     -10794.813      454            58399.333      0.0072024787 
    455000  -10836.132      43.867939     -10792.264      455            58539.074      0.0071560853 
    456000  -10836.661      43.936082     -10792.725      456            58674.523      0.0073828657 
    457000  -10836.996      42.53059      -10794.465      457            58809.949      0.0073840953 
    458000  -10835.852      44.989281     -10790.862      458            58945.547      0.0073747057 
    459000  -10835.852      44.524956     -10791.327      459            59081.338      0.007364253  
    460000  -10839.348      43.727564     -10795.62       460            59216.94       0.0073745747 
    461000  -10837.169      44.271918     -10792.897      461            59355.679      0.0072077396 
    462000  -10836.433      43.395969     -10793.037      462            59494.724      0.0071919215 
    463000  -10837.652      44.728722     -10792.923      463            59633.773      0.007191722  
    464000  -10839.481      43.856697     -10795.624      464            59772.153      0.007226449  
    465000  -10836.892      44.476033     -10792.416      465            59910.883      0.0072082716 
    466000  -10838.072      42.206192     -10795.866      466            60050.275      0.0071740382 
    467000  -10835.319      43.454602     -10791.865      467            60189.951      0.007159425  
    468000  -10836.588      45.925311     -10790.663      468            60329.335      0.0071743903 
    469000  -10837.226      44.057043     -10793.169      469            60468.667      0.0071771112 
    470000  -10837.343      45.851372     -10791.491      470            60608.388      0.0071571361 
    471000  -10839.443      44.69223      -10794.75       471            60748.53       0.0071356015 
    472000  -10836.393      44.675961     -10791.717      472            60886.232      0.0072620383 
    473000  -10838.797      41.717        -10797.08       473            61024.167      0.0072497938 
    474000  -10837.693      46.528492     -10791.165      474            61162.075      0.0072512195 
    475000  -10838.981      44.241237     -10794.74       475            61299.87       0.0072571733 
    476000  -10837.094      43.89185      -10793.202      476            61436.987      0.007293062  
    477000  -10837.798      44.48581      -10793.312      477            61575.206      0.0072348828 
    478000  -10836.309      43.287282     -10793.022      478            61713.663      0.0072224442 
    479000  -10837.878      44.916836     -10792.961      479            61851.255      0.0072678561 
    480000  -10837.297      46.270471     -10791.027      480            61990.095      0.0072025355 
    481000  -10840.786      45.183928     -10795.602      481            62128.101      0.0072460543 
    482000  -10838.771      44.799581     -10793.971      482            62267.077      0.007195507  
    483000  -10839.547      43.329814     -10796.217      483            62404.614      0.0072707785 
    484000  -10838.972      45.083013     -10793.889      484            62542.373      0.0072590203 
    485000  -10838.521      46.006077     -10792.515      485            62681.406      0.0071925391 
    486000  -10837.24       44.013231     -10793.227      486            62819.564      0.0072381274 
    487000  -10837.532      44.184789     -10793.347      487            62957.143      0.0072685564 
    488000  -10837.299      44.350081     -10792.949      488            63095.656      0.0072195028 
    489000  -10839.476      43.244178     -10796.232      489            63234.229      0.0072164302 
    490000  -10837.689      44.214282     -10793.475      490            63372.157      0.0072501647 
    491000  -10834.992      45.630493     -10789.361      491            63511.373      0.0071830801 
    492000  -10838.315      44.325625     -10793.99       492            63648.994      0.007266319  
    493000  -10837.061      44.326899     -10792.734      493            63785.825      0.0073082725 
    494000  -10838.397      41.855984     -10796.541      494            63921.374      0.0073774395 
    495000  -10837.31       44.90247      -10792.408      495            64056.841      0.0073818627 
    496000  -10837.14       44.497021     -10792.643      496            64192.192      0.0073882226 
    497000  -10838.267      45.02145      -10793.246      497            64326.258      0.0074589833 
    498000  -10835.975      46.472326     -10789.503      498            64462.018      0.0073659288 
    499000  -10836.822      43.251269     -10793.571      499            64594.675      0.0075382722 
    500000  -10836.763      46.388356     -10790.375      500            64729.163      0.0074356143 
    501000  -10836.156      43.126561     -10793.029      501            64864.774      0.0073740044 
    502000  -10838.874      42.809336     -10796.065      502            64999.653      0.0074140574 
    503000  -10836.943      44.11579      -10792.827      503            65134.405      0.0074210547 
    504000  -10837.272      44.274168     -10792.998      504            65268.157      0.0074764825 
    505000  -10838.005      44.15893      -10793.846      505            65399.697      0.007602252  
    506000  -10836.09       44.97826      -10791.112      506            65530.765      0.0076296445 
    507000  -10837.235      44.104664     -10793.13       507            65662.761      0.0075759863 
    508000  -10836.782      44.140913     -10792.641      508            65794.439      0.0075943101 
    509000  -10837.414      43.466989     -10793.947      509            65925.215      0.0076466284 
    510000  -10836.543      45.860521     -10790.683      510            66055.84       0.0076555165 
    511000  -10837.561      44.359542     -10793.201      511            66187.513      0.0075945656 
    512000  -10836.512      46.418449     -10790.094      512            66317.405      0.0076987179 
    513000  -10837.955      44.570218     -10793.385      513            66447.019      0.0077151907 
    514000  -10838.088      43.113943     -10794.974      514            66576.626      0.0077156527 
    515000  -10836.931      45.322474     -10791.608      515            66703.23       0.0078986662 
    516000  -10837.564      43.683606     -10793.881      516            66832.489      0.0077364099 
    517000  -10836.83       46.577813     -10790.252      517            66961.981      0.0077224601 
    518000  -10836.913      43.564893     -10793.348      518            67091.228      0.0077371215 
    519000  -10837.305      45.879722     -10791.426      519            67219.374      0.0078035795 
    520000  -10836.85       44.486826     -10792.363      520            67347.408      0.0078104403 
    521000  -10837.102      44.355989     -10792.746      521            67474.125      0.0078916223 
    522000  -10836.328      43.940575     -10792.388      522            67601.828      0.0078306777 
    523000  -10837.42       45.599091     -10791.821      523            67729.216      0.007850033  
    524000  -10837.4        44.006902     -10793.393      524            67854.641      0.0079728624 
    525000  -10836.081      44.80378      -10791.277      525            67981.731      0.0078684203 
    526000  -10837.189      43.928128     -10793.26       526            68108.375      0.0078961897 
    527000  -10835.761      45.630588     -10790.13       527            68236.777      0.0077880428 
    528000  -10839.433      46.344643     -10793.088      528            68364.511      0.0078287433 
    529000  -10835.681      45.968151     -10789.713      529            68491.527      0.0078730509 
    530000  -10835.676      44.237526     -10791.439      530            68619.845      0.0077930976 
    531000  -10837.055      45.612777     -10791.443      531            68748.363      0.0077810135 
    532000  -10837.678      44.740824     -10792.937      532            68878.388      0.0076908368 
    533000  -10836.014      44.789184     -10791.224      533            69009.138      0.0076482092 
    534000  -10838.799      42.027055     -10796.772      534            69139.656      0.0076617733 
    535000  -10837.478      46.170123     -10791.307      535            69268.711      0.0077486078 
    536000  -10838.777      45.499703     -10793.278      536            69399.427      0.0076501759 
    537000  -10836.147      45.477164     -10790.67       537            69530.461      0.007631601  
    538000  -10839.546      44.829117     -10794.716      538            69662.068      0.0075983821 
    539000  -10836.598      45.722271     -10790.875      539            69793.92       0.0075842947 
    540000  -10839.525      45.37218      -10794.152      540            69925.418      0.0076046582 
    541000  -10838.112      42.909352     -10795.203      541            70058.061      0.0075390502 
    542000  -10839.113      45.572775     -10793.541      542            70190.059      0.0075758862 
    543000  -10837.534      43.187696     -10794.347      543            70323.014      0.0075213214 
    544000  -10836.198      46.204874     -10789.994      544            70456.089      0.0075145305 
    545000  -10837.728      43.668452     -10794.06       545            70589.497      0.0074958482 
    546000  -10835.914      44.935133     -10790.978      546            70722.026      0.0075455149 
    547000  -10837.829      44.893484     -10792.935      547            70854.582      0.0075439504 
    548000  -10837.094      44.017385     -10793.077      548            70988.579      0.0074628883 
    549000  -10837.092      45.383248     -10791.709      549            71121.87       0.0075023679 
    550000  -10838.328      44.627337     -10793.701      550            71254.766      0.0075246487 
    551000  -10837.724      43.542622     -10794.181      551            71388.602      0.0074718256 
    552000  -10837.152      45.544378     -10791.607      552            71522.235      0.0074831847 
    553000  -10839.431      44.791411     -10794.639      553            71655.873      0.0074829365 
    554000  -10837.396      44.80868      -10792.588      554            71790.207      0.0074441038 
    555000  -10840.636      44.37334      -10796.263      555            71923.502      0.0075021779 
    556000  -10837.455      44.921191     -10792.534      556            72057.475      0.0074641816 
    557000  -10837.612      45.157485     -10792.454      557            72190.804      0.0075002401 
    558000  -10839.525      45.14614      -10794.379      558            72324.311      0.0074902695 
    559000  -10836.97       47.33785      -10789.632      559            72457.46       0.0075103767 
    560000  -10839.476      45.440767     -10794.035      560            72590.869      0.0074957232 
    561000  -10838.497      45.6775       -10792.819      561            72724.209      0.0074996198 
    562000  -10839.828      44.286972     -10795.541      562            72857.743      0.0074887363 
    563000  -10837.327      44.905497     -10792.422      563            72991.097      0.0074988283 
    564000  -10836.149      45.12115      -10791.028      564            73124.363      0.0075037966 
    565000  -10837.713      43.24044      -10794.473      565            73257.229      0.0075263671 
    566000  -10836.175      43.627818     -10792.547      566            73390.489      0.0075041622 
    567000  -10835.688      44.196098     -10791.491      567            73524.297      0.0074733649 
    568000  -10838.398      43.930806     -10794.468      568            73657.241      0.0075220124 
    569000  -10838.84       43.50889      -10795.331      569            73789.164      0.0075801708 
    570000  -10836.807      44.509066     -10792.298      570            73919.845      0.0076522222 
    571000  -10837.978      41.07969      -10796.898      571            74051.785      0.0075791581 
    572000  -10836.545      44.657414     -10791.887      572            74183.558      0.0075888062 
    573000  -10837.009      42.955025     -10794.054      573            74313.927      0.0076705437 
    574000  -10837.065      46.460007     -10790.605      574            74442.017      0.0078070413 
    575000  -10838.819      46.029622     -10792.789      575            74570.168      0.0078032647 
    576000  -10836.853      42.167352     -10794.685      576            74700.519      0.0076715873 
    577000  -10836.917      45.120801     -10791.796      577            74832.775      0.0075610957 
    578000  -10836.837      42.325054     -10794.512      578            74963.696      0.0076382307 
    579000  -10836.83       46.142052     -10790.688      579            75092.075      0.0077894083 
    580000  -10837.3        44.825399     -10792.474      580            75221.049      0.0077535346 
    581000  -10837.654      44.11431      -10793.539      581            75353.349      0.0075585517 
    582000  -10836.892      45.21667      -10791.675      582            75487.323      0.0074641385 
    583000  -10835.328      42.933677     -10792.395      583            75618.895      0.0076004185 
    584000  -10836.897      45.237157     -10791.66       584            75745.014      0.0079290241 
    585000  -10837.511      43.616885     -10793.894      585            75875.378      0.0076707873 
    586000  -10838.207      45.926219     -10792.281      586            76007.831      0.0075498703 
    587000  -10836.627      45.248364     -10791.379      587            76140.01       0.00756551   
    588000  -10838.398      43.17594      -10795.222      588            76271.021      0.0076329085 
    589000  -10836.685      44.395248     -10792.289      589            76402.609      0.0075994951 
    590000  -10837.803      45.302515     -10792.5        590            76532.604      0.007692621  
    591000  -10839.443      44.397241     -10795.045      591            76662.725      0.0076851506 
    592000  -10835.947      43.292018     -10792.655      592            76793.079      0.0076714293 
    593000  -10836.788      45.688961     -10791.099      593            76922.295      0.0077389431 
    594000  -10836.42       43.038007     -10793.382      594            77052.041      0.0077073632 
    595000  -10838.349      45.730042     -10792.619      595            77181.713      0.0077118074 
    596000  -10837.026      46.069208     -10790.957      596            77311.831      0.0076853423 
    597000  -10838.515      44.293573     -10794.221      597            77443.649      0.0075862012 
    598000  -10835.691      43.527778     -10792.163      598            77576.365      0.007534874  
    599000  -10838.129      44.989645     -10793.139      599            77709.17       0.0075298608 
    600000  -10837.79       46.100239     -10791.689      600            77843.369      0.007451618  
    601000  -10838.528      43.724244     -10794.804      601            77976.449      0.0075142474 
    602000  -10836.959      45.033387     -10791.925      602            78110.55       0.0074570596 
    603000  -10837.542      45.343686     -10792.198      603            78243.802      0.0075046126 
    604000  -10834.743      43.857962     -10790.885      604            78377.796      0.0074629795 
    605000  -10837.578      45.076418     -10792.502      605            78511.833      0.0074606436 
    606000  -10837.689      46.013908     -10791.675      606            78645.71       0.0074695533 
    607000  -10838.663      43.493286     -10795.17       607            78779.298      0.0074857258 
    608000  -10837.736      45.174307     -10792.561      608            78912.63       0.0075000433 
    609000  -10837.112      45.179861     -10791.932      609            79046.409      0.0074750166 
    610000  -10836.931      45.923717     -10791.007      610            79181.337      0.0074113681 
    611000  -10838.844      45.99812      -10792.846      611            79315.745      0.0074400436 
    612000  -10836.35       43.992539     -10792.357      612            79450.183      0.0074383635 
    613000  -10837.495      44.008127     -10793.487      613            79584.583      0.0074404903 
    614000  -10835.834      46.18037      -10789.654      614            79719.44       0.0074152144 
    615000  -10836.414      44.915436     -10791.498      615            79853.183      0.0074770593 
    616000  -10838.777      43.993284     -10794.784      616            79986.276      0.0075135378 
    617000  -10836.51       44.648449     -10791.862      617            80119.302      0.007517314  
    618000  -10837.246      44.357329     -10792.889      618            80252.974      0.0074810019 
    619000  -10835.175      45.239774     -10789.935      619            80386.554      0.0074861498 
    620000  -10838.244      45.814484     -10792.43       620            80521.246      0.0074243432 
    621000  -10835.433      44.074293     -10791.359      621            80655.548      0.0074459161 
    622000  -10837.204      44.384914     -10792.819      622            80789.681      0.0074553165 
    623000  -10837.331      45.458313     -10791.873      623            80924.186      0.0074346428 
    624000  -10837.741      46.817654     -10790.924      624            81059.909      0.0073679562 
    625000  -10840.171      43.308497     -10796.863      625            81195.419      0.0073795361 
    626000  -10837.018      44.947926     -10792.07       626            81330.768      0.0073882945 
    627000  -10839.108      43.838127     -10795.27       627            81466.203      0.0073836114 
    628000  -10838.025      46.821045     -10791.204      628            81602.706      0.0073258286 
    629000  -10837.143      43.818126     -10793.325      629            81741.191      0.0072210401 
    630000  -10835.584      43.015154     -10792.568      630            81881.343      0.0071350849 
    631000  -10836.413      43.527817     -10792.885      631            82021.06       0.0071573241 
    632000  -10836.855      44.616078     -10792.239      632            82157.019      0.0073551388 
    633000  -10837.907      45.343046     -10792.564      633            82294.547      0.0072712623 
    634000  -10839.055      45.159035     -10793.896      634            82435.813      0.0070788467 
    635000  -10836.067      45.247872     -10790.819      635            82575.493      0.0071592389 
    636000  -10837.625      43.283198     -10794.342      636            82714.015      0.007219079  
    637000  -10837.408      45.135769     -10792.273      637            82855.151      0.0070853333 
    638000  -10837.422      43.673288     -10793.748      638            82994.827      0.0071594414 
    639000  -10839.398      45.697325     -10793.701      639            83133.938      0.007188512  
    640000  -10837.116      44.45645      -10792.659      640            83270.999      0.0072960318 
    641000  -10838.723      43.706526     -10795.017      641            83408.405      0.007277701  
    642000  -10835.862      45.49848      -10790.363      642            83547.928      0.007167272  
    643000  -10836.864      43.917727     -10792.946      643            83687.124      0.0071840812 
    644000  -10835.847      43.492269     -10792.354      644            83825.681      0.0072172781 
    645000  -10837.325      43.712441     -10793.613      645            83961.632      0.0073555994 
    646000  -10835.701      45.888349     -10789.812      646            84096.541      0.0074123608 
    647000  -10836.265      44.79652      -10791.469      647            84233.325      0.0073108063 
    648000  -10835.819      43.255681     -10792.563      648            84371.533      0.0072354996 
    649000  -10835.496      44.1286       -10791.367      649            84508.991      0.0072749325 
    650000  -10837.407      43.181205     -10794.225      650            84645.636      0.0073182243 
    651000  -10838.347      45.676708     -10792.67       651            84783.052      0.0072771724 
    652000  -10836.212      45.494422     -10790.718      652            84920.027      0.0073006188 
    653000  -10838.727      43.885114     -10794.842      653            85054.65       0.0074281634 
    654000  -10835.174      46.498796     -10788.675      654            85190.146      0.0073802728 
    655000  -10837.134      43.843013     -10793.291      655            85325.272      0.0074005043 
    656000  -10835.92       46.214794     -10789.705      656            85460.224      0.0074100166 
    657000  -10837.311      44.951539     -10792.359      657            85594.6        0.0074418126 
    658000  -10837.525      41.877758     -10795.647      658            85729.297      0.0074240907 
    659000  -10838.293      46.65524      -10791.638      659            85863.514      0.0074506269 
    660000  -10837.782      43.930221     -10793.852      660            85997.512      0.0074627615 
    661000  -10837.09       44.432853     -10792.657      661            86131.812      0.0074460322 
    662000  -10838.411      45.374333     -10793.037      662            86265.525      0.0074786825 
    663000  -10837.197      45.982506     -10791.214      663            86399.296      0.0074754887 
    664000  -10838.472      44.547534     -10793.924      664            86531.459      0.007566406  
    665000  -10836.308      43.852326     -10792.456      665            86666.054      0.0074296925 
    666000  -10837.955      43.224551     -10794.73       666            86799.675      0.0074838622 
    667000  -10836.337      44.830798     -10791.506      667            86934.06       0.0074412884 
    668000  -10836.291      43.403466     -10792.887      668            87068.068      0.0074622553 
    669000  -10838.007      45.444734     -10792.562      669            87204.35       0.0073377472 
    670000  -10837.7        43.726478     -10793.974      670            87339.853      0.0073799178 
    671000  -10835.668      43.331978     -10792.336      671            87476.325      0.0073274714 
    672000  -10836.434      43.498503     -10792.935      672            87612.596      0.0073383098 
    673000  -10836.555      45.77629      -10790.779      673            87749.97       0.007279406  
    674000  -10838.521      44.642018     -10793.879      674            87886.756      0.0073107108 
    675000  -10836.12       46.721788     -10789.398      675            88024.483      0.0072607567 
    676000  -10838.687      44.995367     -10793.692      676            88162.49       0.0072460099 
    677000  -10836.242      44.898424     -10791.344      677            88297.952      0.0073820964 
    678000  -10834.441      44.938041     -10789.503      678            88436.022      0.0072427124 
    679000  -10838.891      45.855949     -10793.035      679            88573.346      0.007282085  
    680000  -10837.234      45.143258     -10792.091      680            88711.62       0.0072319789 
    681000  -10839.12       43.233077     -10795.887      681            88848.177      0.0073229697 
    682000  -10837.027      45.638679     -10791.388      682            88984.466      0.007337358  
    683000  -10838.749      43.344854     -10795.404      683            89120.777      0.0073361694 
    684000  -10837.391      44.567819     -10792.823      684            89255.922      0.0073994398 
    685000  -10836.849      43.382738     -10793.466      685            89391.993      0.0073491024 
    686000  -10837.491      43.781076     -10793.709      686            89528.927      0.00730277   
    687000  -10838.037      45.737001     -10792.3        687            89666.061      0.0072921418 
    688000  -10839.776      42.802308     -10796.973      688            89802.73       0.0073169659 
    689000  -10837.023      45.920878     -10791.102      689            89940.063      0.0072815707 
    690000  -10837.7        44.742494     -10792.958      690            90076.644      0.007321664  
    691000  -10836.801      44.032208     -10792.769      691            90213.918      0.0072846802 
    692000  -10836.84       43.185956     -10793.654      692            90347.147      0.0075059206 
    693000  -10836.749      43.78146      -10792.967      693            90480.57       0.0074949534 
    694000  -10837.653      42.657018     -10794.996      694            90614.946      0.0074417668 
    695000  -10836.962      45.38295      -10791.579      695            90750.259      0.0073902853 
    696000  -10835.972      44.690902     -10791.281      696            90885.368      0.0074014211 
    697000  -10837.914      42.604584     -10795.309      697            91020.839      0.0073816712 
    698000  -10838.133      45.900891     -10792.232      698            91155.512      0.0074253863 
    699000  -10837.911      44.593029     -10793.318      699            91289.6        0.007457781  
    700000  -10837.63       43.751929     -10793.878      700            91424.946      0.0073884965 
    701000  -10835.675      45.224339     -10790.451      701            91559.757      0.0074178026 
    702000  -10837.744      44.231661     -10793.513      702            91694.454      0.0074240463 
    703000  -10840.649      45.244983     -10795.404      703            91831.11       0.0073176485 
    704000  -10837.688      45.667381     -10792.021      704            91968.264      0.0072910873 
    705000  -10838.371      44.008434     -10794.363      705            92104.796      0.0073242571 
    706000  -10836.808      45.245026     -10791.563      706            92241.549      0.0073124746 
    707000  -10836.617      42.699923     -10793.917      707            92378.97       0.0072768855 
    708000  -10836.233      45.279603     -10790.954      708            92516.396      0.0072766638 
    709000  -10837.6        44.494486     -10793.106      709            92653.692      0.0072835365 
    710000  -10836.095      44.308415     -10791.787      710            92791.965      0.0072320607 
    711000  -10837.015      44.001367     -10793.014      711            92929.849      0.0072524612 
    712000  -10837.502      45.810887     -10791.691      712            93068.886      0.0071923639 
    713000  -10838.177      43.828766     -10794.348      713            93207.77       0.0072002411 
    714000  -10835.954      45.065753     -10790.888      714            93345.266      0.007272918  
    715000  -10838.063      45.544121     -10792.519      715            93485.178      0.0071473568 
    716000  -10838.482      43.701828     -10794.78       716            93624.131      0.0071967015 
    717000  -10837.317      44.755538     -10792.561      717            93764.773      0.0071102482 
    718000  -10838.848      43.586934     -10795.261      718            93905.696      0.0070960745 
    719000  -10838.055      46.744081     -10791.311      719            94044.792      0.0071892903 
    720000  -10837.865      43.680862     -10794.185      720            94181.976      0.0072894534 
    721000  -10835.517      44.314268     -10791.203      721            94320.958      0.0071951942 
    722000  -10838.282      44.479222     -10793.803      722            94459.769      0.0072040121 
    723000  -10838.867      46.708209     -10792.159      723            94599.351      0.0071642635 
    724000  -10838.386      44.034041     -10794.352      724            94739.562      0.007132122  
    725000  -10836.621      44.793481     -10791.828      725            94877.956      0.0072257369 
    726000  -10838.52       45.400494     -10793.12       726            95017.85       0.0071482771 
    727000  -10838.127      44.404501     -10793.723      727            95155.576      0.0072607718 
    728000  -10837.803      45.47712      -10792.326      728            95294          0.0072241684 
    729000  -10838.284      43.897665     -10794.386      729            95432.248      0.0072334157 
    730000  -10836.452      45.096239     -10791.355      730            95570.126      0.0072527626 
    731000  -10839.015      44.842224     -10794.173      731            95708.227      0.0072410766 
    732000  -10837.071      44.258424     -10792.812      732            95847.429      0.0071838226 
    733000  -10838.674      43.396602     -10795.277      733            95984.553      0.0072926732 
    734000  -10838.769      46.795739     -10791.973      734            96122.868      0.0072298413 
    735000  -10838.174      44.638813     -10793.535      735            96260.868      0.0072463886 
    736000  -10836.178      45.146907     -10791.031      736            96398.341      0.0072741675 
    737000  -10837.338      44.768475     -10792.57       737            96536.339      0.007246482  
    738000  -10838.818      44.118904     -10794.699      738            96673.715      0.0072793045 
    739000  -10838.675      45.21029      -10793.465      739            96811.312      0.0072675612 
    740000  -10838.318      45.201795     -10793.116      740            96948.156      0.0073076218 
    741000  -10839.073      45.079611     -10793.993      741            97084.423      0.0073385513 
    742000  -10837.457      43.573691     -10793.883      742            97220.041      0.0073736041 
    743000  -10838.351      47.138551     -10791.212      743            97356.927      0.0073053978 
    744000  -10838.582      44.967532     -10793.614      744            97494.532      0.0072671586 
    745000  -10837.259      45.347314     -10791.912      745            97631.019      0.0073267138 
    746000  -10836.777      46.203778     -10790.573      746            97767.716      0.0073154327 
    747000  -10838.451      45.072481     -10793.379      747            97903.73       0.0073521691 
[...]
    888000  -10838.899      44.282043     -10794.617      888            117052.81      0.0081273508 
    889000  -10837.074      45.164993     -10791.909      889            117175.45      0.0081544481 
    890000  -10838.372      43.246304     -10795.126      890            117299.37      0.0080698525 
    891000  -10837.554      44.105709     -10793.448      891            117424.29      0.0080047713 
    892000  -10838.075      43.484039     -10794.591      892            117550.51      0.0079228892 
    893000  -10837.788      46.243296     -10791.545      893            117677.84      0.0078532242 
    894000  -10839.654      45.282163     -10794.372      894            117806.82      0.0077534953 
    895000  -10838.019      46.134745     -10791.884      895            117935.76      0.0077556124 
    896000  -10839.999      44.23579      -10795.763      896            118065.78      0.0076909127 
    897000  -10837.404      44.276729     -10793.127      897            118195.64      0.0077007195 
    898000  -10838.45       44.562903     -10793.887      898            118327.65      0.0075749753 
    899000  -10838.954      43.576448     -10795.377      899            118461.35      0.0074795683 
    900000  -10837.15       45.139481     -10792.011      900            118595.66      0.0074455159 
    901000  -10838.558      43.393115     -10795.165      901            118729.71      0.0074597934 
    902000  -10837.8        45.66038      -10792.14       902            118864.67      0.0074095509 
    903000  -10837.996      45.278871     -10792.717      903            118999.33      0.0074261613 
    904000  -10838.077      45.240151     -10792.836      904            119134.27      0.0074109023 
    905000  -10837.122      42.792014     -10794.33       905            119269.37      0.0074015416 
    906000  -10837.324      44.780201     -10792.544      906            119405.95      0.0073217465 
    907000  -10839.426      44.619376     -10794.807      907            119542.88      0.0073031253 
    908000  -10837.015      44.911986     -10792.103      908            119679.81      0.0073031159 
    909000  -10838.817      46.471803     -10792.345      909            119817.45      0.007265136  
    910000  -10839.846      43.19657      -10796.65       910            119955.14      0.0072627656 
    911000  -10837.836      43.644641     -10794.191      911            120092.16      0.0072984385 
    912000  -10836.22       45.008938     -10791.211      912            120230.32      0.0072376704 
    913000  -10837.974      44.084904     -10793.889      913            120367.06      0.007313126  
    914000  -10839.509      46.325364     -10793.184      914            120504.53      0.0072746395 
    915000  -10837.705      44.675013     -10793.03       915            120642.08      0.007269736  
    916000  -10839.984      42.619282     -10797.365      916            120780.77      0.0072103734 
    917000  -10836.761      44.377648     -10792.384      917            120918.14      0.0072798937 
    918000  -10837.926      43.96417      -10793.962      918            121055.81      0.0072638399 
    919000  -10837.357      44.95561      -10792.401      919            121193.22      0.0072769976 
    920000  -10837.575      43.578953     -10793.996      920            121331.62      0.0072256307 
    921000  -10839.764      44.703958     -10795.06       921            121470.33      0.0072093097 
    922000  -10841.04       45.58096      -10795.459      922            121607.5       0.0072904802 
    923000  -10838.718      44.624537     -10794.094      923            121745.49      0.0072466425 
    924000  -10837.751      44.225747     -10793.525      924            121882.88      0.0072787829 
    925000  -10838.568      46.155406     -10792.413      925            122020.51      0.0072657807 
    926000  -10839.463      43.687292     -10795.776      926            122158.69      0.0072367733 
    927000  -10839.197      44.075158     -10795.122      927            122296.65      0.0072483242 
    928000  -10840.156      44.689681     -10795.467      928            122434.32      0.007264064  
    929000  -10839.932      44.037422     -10795.894      929            122572.14      0.0072558728 
    930000  -10838.18       44.051235     -10794.128      930            122709.26      0.0072925751 
    931000  -10839.096      46.423305     -10792.673      931            122847.07      0.0072565844 
    932000  -10838.297      43.675879     -10794.621      932            122983.94      0.0073061243 
    933000  -10836.823      44.873058     -10791.95       933            123121.42      0.0072739897 
    934000  -10837.718      42.875761     -10794.843      934            123258.86      0.0072758299 
    935000  -10838.526      44.685434     -10793.84       935            123396.15      0.0072838453 
    936000  -10839.655      45.535625     -10794.12       936            123533.36      0.0072880789 
    937000  -10839.7        43.124406     -10796.576      937            123670.98      0.0072661834 
    938000  -10838.82       45.519869     -10793.3        938            123808.6       0.0072666281 
    939000  -10836.925      45.282113     -10791.643      939            123946.06      0.0072746281 
    940000  -10839.086      42.407848     -10796.678      940            124082.53      0.0073279237 
    941000  -10838.925      46.370207     -10792.555      941            124219.88      0.007280541  
    942000  -10836.567      44.806181     -10791.76       942            124357.43      0.0072701714 
    943000  -10837.74       44.725273     -10793.015      943            124494.38      0.0073014994 
    944000  -10836.014      43.924549     -10792.089      944            124631.03      0.0073180038 
    945000  -10839.422      45.646874     -10793.775      945            124768.51      0.007273834  
    946000  -10836.607      46.248924     -10790.358      946            124905.99      0.0072736899 
    947000  -10837.453      43.245629     -10794.207      947            125042.62      0.0073193606 
    948000  -10837.086      43.625001     -10793.461      948            125179.3       0.0073160723 
    949000  -10839.266      44.040886     -10795.226      949            125315.01      0.0073686251 
    950000  -10837.607      44.727888     -10792.88       950            125450.3       0.0073920289 
    951000  -10838.994      43.410818     -10795.583      951            125586.34      0.0073504398 
    952000  -10839.228      45.159645     -10794.068      952            125723.24      0.0073047409 
    953000  -10838.406      44.409458     -10793.996      953            125859.97      0.0073137362 
    954000  -10837.641      44.263505     -10793.378      954            125996.54      0.0073219676 
    955000  -10838.77       46.193852     -10792.577      955            126133.19      0.0073182701 
    956000  -10839.66       44.55109      -10795.109      956            126269.51      0.0073354677 
    957000  -10838.011      44.216554     -10793.794      957            126402.28      0.0075316529 
    958000  -10839.475      43.064407     -10796.411      958            126537.58      0.0073914085 
    959000  -10838.962      45.308156     -10793.654      959            126671.59      0.0074619731 
    960000  -10838.8        44.226775     -10794.573      960            126804.58      0.0075192923 
    961000  -10836.893      46.280743     -10790.612      961            126936.86      0.0075596438 
    962000  -10838.417      44.143884     -10794.273      962            127068.55      0.0075939978 
    963000  -10840.049      43.931807     -10796.117      963            127199.18      0.007654853  
    964000  -10839.36       44.34043      -10795.02       964            127329         0.0077028471 
    965000  -10837.496      42.266882     -10795.229      965            127459.29      0.0076753013 
    966000  -10838.313      44.180404     -10794.132      966            127588.87      0.0077172744 
    967000  -10838.851      44.816513     -10794.035      967            127719.77      0.0076392811 
    968000  -10839.543      43.928551     -10795.615      968            127851.58      0.0075868889 
    969000  -10840.601      44.628679     -10795.972      969            127983.61      0.0075738654 
    970000  -10839.505      45.239867     -10794.265      970            128115.22      0.0075981679 
    971000  -10839.703      43.927414     -10795.775      971            128247.59      0.0075545197 
    972000  -10837.55       44.717399     -10792.833      972            128381.53      0.0074662753 
    973000  -10838.551      43.833485     -10794.717      973            128515.74      0.0074509253 
    974000  -10837.944      44.855215     -10793.089      974            128649.42      0.0074809157 
    975000  -10839.266      44.563077     -10794.703      975            128783.42      0.007462536  
    976000  -10838.805      43.926681     -10794.878      976            128919.33      0.0073579424 
    977000  -10838.384      45.246042     -10793.138      977            129054.51      0.0073972993 
    978000  -10837.277      44.175316     -10793.101      978            129189.97      0.0073820964 
    979000  -10839.043      44.414423     -10794.629      979            129327.02      0.0072965905 
    980000  -10837.984      45.609238     -10792.375      980            129473.35      0.0068340383 
    981000  -10839.535      45.410432     -10794.125      981            129613.69      0.0071256477 
    982000  -10839.3        42.670627     -10796.63       982            129753.64      0.0071454948 
    983000  -10835.853      43.230457     -10792.623      983            129889.64      0.0073527616 
    984000  -10839.768      44.533343     -10795.235      984            130025.89      0.0073394484 
    985000  -10839.045      43.776353     -10795.269      985            130161.63      0.0073671895 
    986000  -10840.257      43.876721     -10796.381      986            130297.58      0.0073553743 
    987000  -10838.868      44.723142     -10794.145      987            130434.43      0.0073075762 
    988000  -10840.32       44.50286      -10795.818      988            130570.99      0.0073224249 
    989000  -10839.91       45.560921     -10794.349      989            130707.94      0.007301809  
    990000  -10838.591      46.527974     -10792.064      990            130843.82      0.0073595357 
    991000  -10840.923      45.227388     -10795.696      991            130979.91      0.0073480101 
    992000  -10837.211      45.241405     -10791.969      992            131116         0.0073480732 
    993000  -10840.373      44.652096     -10795.721      993            131252.43      0.007330191  
    994000  -10838.71       47.731509     -10790.979      994            131388.81      0.0073323606 
    995000  -10839.758      45.186639     -10794.571      995            131524.7       0.0073590166 
    996000  -10837.797      44.236479     -10793.561      996            131662.18      0.0072737697 
    997000  -10840.747      44.416132     -10796.331      997            131798.87      0.0073153638 
    998000  -10836.585      43.88968      -10792.695      998            131935.22      0.0073340447 
    999000  -10840.661      43.906808     -10796.754      999            132072.68      0.0072749354 
   1000000  -10839.368      45.042936     -10794.325      1000           132209.67      0.0072999586 
Loop time of 132210 on 16 procs for 1000000 steps with 1152 atoms

Performance: 0.654 ns/day, 36.725 hours/ns, 7.564 timesteps/s, 8.713 katom-step/s
99.3% CPU use with 16 MPI tasks x 1 OpenMP threads

MPI task timing breakdown:
Section |  min time  |  avg time  |  max time  |%varavg| %total
---------------------------------------------------------------
Pair    | 27958      | 32633      | 40041      |2194.1 | 24.68
Neigh   | 315.98     | 376.2      | 430.79     | 176.7 |  0.28
Comm    | 2455.5     | 6230.9     | 12112      |3611.7 |  4.71
Output  | 0.19722    | 0.21059    | 0.37746    |   9.4 |  0.00
Modify  | 87993      | 92960      | 97347      |1144.7 | 70.31
Other   |            | 9.06       |            |       |  0.01

Nlocal:             72 ave          90 max          48 min
Histogram: 1 0 1 3 1 3 1 4 0 2
Nghost:        827.375 ave         913 max         712 min
Histogram: 2 2 0 0 3 3 0 0 0 6
Neighs:              0 ave           0 max           0 min
Histogram: 16 0 0 0 0 0 0 0 0 0
FullNghs:      5647.12 ave        8229 max        3168 min
Histogram: 1 0 4 1 1 4 3 0 0 2

Total # of neighbors = 90354
Ave neighs/atom = 78.432292
Neighbor list builds = 2000000
Dangerous builds = 0

unfix temp

min_style cg
fix 0 all box/relax aniso 0 vmax 0.001
minimize 0 0 100000 100000
Per MPI rank memory allocation (min/avg/max) = 5.534 | 5.539 | 5.543 Mbytes
   Step         PotEng         KinEng         TotEng          Time           CPU           T/CPU     
   1000000  -10839.368      45.042936     -10794.325      1000           0              0            
   1001000  -10885.157      45.042936     -10840.114      1001           77.717013      0.012867195  
   1002000  -10885.159      45.042936     -10840.116      1002           175.9301       0.010181943  
   1003000  -10885.161      45.042936     -10840.118      1003           274.72239      0.010122248  
   1004000  -10885.162      45.042936     -10840.119      1004           373.37417      0.010136664  
   1005000  -10885.163      45.042936     -10840.12       1005           472.20431      0.01011837   
   1006000  -10885.163      45.042936     -10840.12       1006           571.41845      0.010079209  
   1007000  -10885.164      45.042936     -10840.122      1007           670.60447      0.010082066  
   1008000  -10885.165      45.042936     -10840.122      1008           769.75916      0.010085252  
   1009000  -10885.165      45.042936     -10840.122      1009           868.30121      0.010147952  
   1010000  -10885.165      45.042936     -10840.122      1010           966.767        0.010155811  
   1011000  -10885.165      45.042936     -10840.122      1011           1064.2625      0.010256886  
   1012000  -10885.165      45.042936     -10840.122      1012           1162.7877      0.010149688  
   1013000  -10885.165      45.042936     -10840.122      1013           1261.403       0.010140408  
   1014000  -10885.165      45.042936     -10840.122      1014           1359.7732      0.010165688  
   1015000  -10885.165      45.042936     -10840.122      1015           1458.1552      0.010164459  
   1016000  -10885.165      45.042936     -10840.122      1016           1556.7403      0.01014352   
   1017000  -10885.165      45.042936     -10840.122      1017           1657.2141      0.00995284   
   1018000  -10885.165      45.042936     -10840.122      1018           1760.3673      0.0096943168 
   1019000  -10885.165      45.042936     -10840.122      1019           1863.2534      0.0097194886 
   1020000  -10885.165      45.042936     -10840.122      1020           1966.4002      0.0096949212 
   1021000  -10885.165      45.042936     -10840.122      1021           2069.8462      0.0096668836 
   1022000  -10885.165      45.042936     -10840.122      1022           2173.2387      0.0096718749 
   1023000  -10885.165      45.042936     -10840.122      1023           2276.9616      0.009641075  
   1024000  -10885.165      45.042936     -10840.122      1024           2380.664       0.0096429822 
   1025000  -10885.165      45.042936     -10840.122      1025           2482.245       0.0098443609 
   1026000  -10885.165      45.042936     -10840.122      1026           2579.131       0.010321409  
   1027000  -10885.165      45.042936     -10840.122      1027           2676.0594      0.010316884  
   1028000  -10885.165      45.042936     -10840.122      1028           2773.3939      0.010273856  
   1029000  -10885.165      45.042936     -10840.122      1029           2870.3159      0.010317568  
   1030000  -10885.165      45.042936     -10840.122      1030           2968.6013      0.010174455  
   1031000  -10885.165      45.042936     -10840.122      1031           3066.9549      0.010167397  
   1032000  -10885.165      45.042936     -10840.122      1032           3163.7138      0.01033497   
   1033000  -10885.165      45.042936     -10840.122      1033           3261.2226      0.010255484  
   1034000  -10885.165      45.042936     -10840.122      1034           3358.3415      0.010296658  
   1035000  -10885.165      45.042936     -10840.122      1035           3455.5323      0.010289037  
   1036000  -10885.165      45.042936     -10840.122      1036           3555.5277      0.010000461  
   1037000  -10885.165      45.042936     -10840.122      1037           3652.7208      0.010288796  
   1038000  -10885.165      45.042936     -10840.122      1038           3749.9037      0.010289871  
   1039000  -10885.165      45.042936     -10840.122      1039           3846.9262      0.010306897  
   1040000  -10885.165      45.042936     -10840.122      1040           3943.5228      0.010352324  
   1041000  -10885.165      45.042936     -10840.122      1041           4040.6547      0.010295284  
   1042000  -10885.165      45.042936     -10840.122      1042           4138.3719      0.010233608  
   1043000  -10885.165      45.042936     -10840.122      1043           4235.6484      0.010279981  
   1044000  -10885.165      45.042936     -10840.122      1044           4332.9426      0.0102781    
   1045000  -10885.165      45.042936     -10840.122      1045           4430.6997      0.010229437  
   1046000  -10885.165      45.042936     -10840.122      1046           4529.3842      0.010133306  
   1047000  -10885.165      45.042936     -10840.122      1047           4627.7986      0.010161111  
   1048000  -10885.165      45.042936     -10840.122      1048           4727.447       0.010035285  
   1049000  -10885.165      45.042936     -10840.122      1049           4826.2164      0.010124598  
   1050000  -10885.165      45.042936     -10840.122      1050           4924.8074      0.010142908  
   1050180  -10885.165      45.042936     -10840.122      1050.18        4942.576       0.010130259  
Loop time of 4942.58 on 16 procs for 50180 steps with 1152 atoms

99.3% CPU use with 16 MPI tasks x 1 OpenMP threads

Minimization stats:
  Stopping criterion = max force evaluations
  Energy initial, next-to-last, final = 
     -10839.3677973937  -10885.1651602684  -10885.1651602684
  Force two-norm initial, final = 101.49834 4.1603231e-11
  Force max component initial, final = 79.775839 3.3831542e-11
  Final line search alpha, max atom move = 1 3.3831542e-11
  Iterations, force evaluations = 50180 100000

MPI task timing breakdown:
Section |  min time  |  avg time  |  max time  |%varavg| %total
---------------------------------------------------------------
Pair    | 2011.2     | 3389.5     | 4864.1     |1284.3 | 68.58
Neigh   | 0.0004129  | 0.00063548 | 0.00086552 |   0.0 |  0.00
Comm    | 11.791     | 834.37     | 1845.7     |2032.2 | 16.88
Output  | 0.0071478  | 0.0078664  | 0.017206   |   2.7 |  0.00
Modify  | 0          | 0          | 0          |   0.0 |  0.00
Other   |            | 718.7      |            |       | 14.54

Nlocal:             72 ave          90 max          48 min
Histogram: 1 0 1 3 2 2 2 3 0 2
Nghost:        820.125 ave         902 max         712 min
Histogram: 2 2 0 0 3 3 0 0 2 4
Neighs:              0 ave           0 max           0 min
Histogram: 16 0 0 0 0 0 0 0 0 0
FullNghs:      5671.38 ave        8260 max        3170 min
Histogram: 1 0 4 1 1 4 3 0 0 2

Total # of neighbors = 90742
Ave neighs/atom = 78.769097
Neighbor list builds = 2
Dangerous builds = 0

write_data data.CSRO
System init for write_data ...

print "all done"
all done
Total wall time: 38:05:52
