LAMMPS data file via write_data, version 22 Dec 2022, timestep = 5050180

1152 atoms
5 atom types

-0.05551989450656852 15.462320478665491 xlo xhi
0.046264633294050034 16.29511512087082 ylo yhi
0.25748000650860264 70.90348371041632 zlo zhi

Masses

1 180.948
2 92.9064
3 50.9415
4 95.94
5 183.84

Atoms # atomic

869 3 1.8234876698242626 1.888441207299336 2.543772323162003 -14 5 0
885 3 0.59873423872698 2.508531704544709 0.27145192901598925 -14 5 0
929 3 4.388652352851833 2.5873655139667857 2.5767502736132246 -15 5 0
915 3 6.912626549911296 0.9607734634828136 2.5289532904200143 -15 5 0
916 3 6.993461654189078 3.315207870874124 2.6190073917518495 -15 5 0
910 3 4.435680987931545 0.22635778367041656 2.504707269261716 -15 5 0
895 3 9.535551777074636 1.8998632332325363 2.5623704245688192 -15 5 0
923 3 9.614385246660124 4.1938903014678965 2.6024028160685826 -15 5 0
921 3 8.323044559101957 2.451568367360661 0.2847289589142025 -15 5 0
900 3 10.951619832753085 3.334753759044325 0.29519050295263055 -15 5 0
879 3 14.761198730035753 1.1198224608306593 2.525083672549804 -15 5 0
880 3 14.770670669861579 3.4841220494608107 2.588662726473406 -15 5 0
901 3 12.172450003493076 2.745242816845445 2.5756144664134695 -15 5 0
874 2 12.16142088260185 0.28671912703704916 2.5600683341837875 -15 5 0
370 2 14.851215376587367 5.949168779058826 7.180785056357469 -15 4 0
887 3 1.859077121139199 4.212770186525555 2.5978415868090883 -14 5 0
289 2 1.8293193172688142 6.8946406282844555 2.5584286830599994 -14 4 0
930 3 4.417980211557505 5.004801087710999 2.592287901032619 -15 5 0
343 2 4.444037204531056 7.884746131088817 2.5437308980156743 -15 4 0
324 2 7.012080858687668 5.926007721479808 2.602514550258603 -15 4 0
305 2 9.62657721370753 6.913685156625104 2.5645560269240897 -15 4 0
392 2 12.225555249087662 7.908699030248053 7.2003484354603415 -15 4 0
307 2 10.938079535638108 5.98030232495567 0.27155334353756766 -15 4 0
907 3 13.486956216121824 4.204910661774237 0.3244215124240165 -15 5 0
291 2 13.512843340678117 6.9330915482826665 0.257701545358644 -15 4 0
292 3 14.783163543706298 5.940721210949564 2.5872077390710024 -15 4 0
902 3 12.269046851096654 5.075971095833801 2.5603221995899563 -15 5 0
309 2 12.22861089498798 7.889947163034599 2.5460308954138497 -15 4 0
943 2 0.4654075333504911 0.2773288142472303 4.880299083733197 -14 5 0
966 3 0.5298619920333616 2.746704683467505 4.877348686961872 -14 5 0
945 3 1.8104994576195723 1.9173328576963022 7.2189935477617375 -14 5 0
1022 3 3.125014890671404 3.397214761459083 4.869681704900838 -15 5 0
1021 3 3.1256584360515096 1.0911842287094908 4.83566245706502 -15 5 0
1023 3 4.413099994514869 2.7135791956397055 7.160950255820071 -15 5 0
1005 3 5.6818605999949146 1.8110243439661315 4.8483636622976265 -15 5 0
1006 3 7.004383968593396 1.0533607421208295 7.192521036284597 -15 5 0
1007 3 7.037448573852367 3.3745945541309355 7.132947033278583 -15 5 0
997 2 4.420207103906024 0.2576009517962382 7.221741542498293 -15 5 0
1011 3 8.260066598896051 2.6300826587375834 4.87015488460315 -15 5 0
979 3 9.568519278991683 1.873145735835125 7.195273059848442 -15 5 0
986 3 10.860696840093752 3.3839382090601324 4.855562312340495 -15 5 0
985 3 10.819409358142188 1.0870485030297194 4.91245377660704 -15 5 0
977 3 8.18745210821849 0.25721456183801217 4.856881906789069 -15 5 0
952 3 12.163052868089592 0.2225875039356725 7.236641116391997 -15 5 0
962 3 14.828497318148692 3.3672605175527273 7.147651526495474 -15 5 0
961 3 14.673501081087938 1.0593382348854101 7.267938421981668 -15 5 0
960 3 13.416458654300845 1.8481529090057758 4.903343034487141 -15 5 0
987 3 12.153176891788137 2.514046720270732 7.1889450652405085 -15 5 0
968 3 1.880153171547186 4.208515134286308 7.194747755138474 -14 5 0
967 3 0.5539079033624046 5.068804061030897 4.827420820046898 -14 5 0
376 2 0.5779946931945004 7.874361654103175 4.859673025870391 -14 4 0
362 2 1.8805232121221909 6.904010775677213 7.196702520874273 -14 4 0
433 2 3.1610100078727332 5.930564444652133 4.862260655320159 -15 4 0
1026 3 5.719784048322565 4.169399934412077 4.8655597228841225 -15 5 0
1024 3 4.444580452765679 5.050142297663915 7.153961674097133 -15 5 0
435 2 4.451825944040226 7.885219240874961 7.195589514988172 -15 4 0
409 2 5.747272692562266 6.894651532146531 4.862597022820295 -15 4 0
410 2 7.031244629247887 5.951992132943524 7.15434863727297 -15 4 0
1013 3 9.593732393115255 4.188457238956008 7.156928976672674 -15 5 0
1012 3 8.314239795042429 5.010191952725071 4.87413530242563 -15 5 0
390 2 10.905333523231684 5.9433986669272105 4.838277743793109 -15 4 0
417 2 8.331793432714106 7.885118053533447 4.868919371410632 -15 4 0
383 2 9.625386986997643 6.92626317632764 7.194041063885285 -15 4 0
990 3 13.523383898943589 4.203154214268695 4.819225009624531 -15 5 0
369 2 13.54204917991699 6.889055680592954 4.821724462287606 -15 4 0
988 2 12.204588817375683 5.032117573690405 7.156109820915813 -15 5 0
928 3 3.122127775740672 3.267166218415589 0.27045212119074336 -15 5 0
935 2 5.6824440529729925 4.112760470488034 0.29250798512323684 -15 5 0
886 2 0.537789029170627 5.062953180691545 0.29317071455290034 -14 5 0
341 2 3.147009003347583 5.970835942321605 0.2593965672103167 -15 4 0
922 2 8.332475871224416 5.030662360344849 0.27441762785537094 -15 5 0
963 3 0.6150825636459216 2.5449352067639803 9.47553902623173 -14 5 0
942 3 1.9001093414431536 1.5524369428554303 11.895805743763095 -14 5 0
1016 3 3.1054241880875324 0.9993262096479346 9.619526544217846 -15 5 0
1017 3 3.146266898004427 3.3199978351220483 9.478612948955844 -15 5 0
965 2 1.9069740445198866 4.107898297239295 11.845972890893588 -14 5 0
940 3 0.4686348837564949 0.17753840781258715 9.63883245952367 -14 5 0
1018 3 4.4808571257366845 2.4046700839597985 11.822367067001984 -15 5 0
999 3 5.754973757914636 1.6540556119734053 9.566856916360628 -15 5 0
1001 3 7.16206703342219 3.2704597243422517 11.850472845192982 -15 5 0
1000 3 7.100994783129171 0.930551903501174 11.811715783921883 -15 5 0
993 3 4.414993521215077 0.10191797471445284 11.881346274801334 -15 5 0
1008 3 8.36562263268572 2.479374879590476 9.533616273072122 -15 5 0
974 3 9.663548395433251 1.6687323078577807 11.856268947961526 -15 5 0
980 3 10.884870506048603 0.9848136752484068 9.56881581972478 -15 5 0
981 3 10.902771199587807 3.286058081385056 9.54015444365812 -15 5 0
972 3 8.270363235239051 0.16453959740300256 9.598921561282324 -15 5 0
956 2 14.824788149415404 3.2065107812062066 11.857789230495202 -15 5 0
982 3 12.205197776887866 2.3665603501428034 11.831246294389599 -15 5 0
954 3 13.455970149996716 1.6272166589952244 9.544647169974064 -15 5 0
955 3 14.776763439473477 0.7012560290645139 11.908429084682721 -15 5 0
964 3 0.6179053069045308 5.024423605686701 9.488439383207474 -14 5 0
372 2 0.5716182180513755 7.903769199420559 9.553186414473855 -14 4 0
361 2 1.854367501896003 6.9806162040789745 11.890085210927172 -14 4 0
427 2 3.1324710737570673 5.957938562054657 9.506565348600802 -15 4 0
1025 2 5.74990433502395 4.140555776898065 9.491468714334172 -15 5 0
1019 2 4.477460947947958 5.041844862772718 11.869975871410913 -15 5 0
429 2 4.433650479836099 7.964299108527212 11.899290210384036 -15 4 0
404 2 5.742167366057826 6.964716451736604 9.52925634892602 -15 4 0
405 2 7.08065681507924 6.003571072883015 11.879023075368542 -15 4 0
1010 3 9.653586601312862 4.108787914245798 11.84824156605689 -15 5 0
1009 2 8.380352116711848 5.033204290823778 9.536912428967145 -15 5 0
412 2 8.336398192907694 7.935672382066583 9.556633473140643 -15 4 0
380 2 9.657930804631745 6.956577747500281 11.933225600849754 -15 4 0
384 2 10.929399280078123 5.983273107225174 9.54929864129006 -15 4 0
989 2 13.547253892725145 4.139456783282659 9.496069012371306 -15 5 0
365 2 14.812375405328062 6.01088248551822 11.869732541068862 -15 4 0
983 2 12.177789008327435 5.048238911023923 11.903539161091423 -15 5 0
364 2 13.522707247475877 6.953357877924118 9.547109264497701 -15 4 0
386 2 12.198767942547766 7.951612369061577 11.919771066698926 -15 4 0
957 3 0.6483100037561798 2.3496642646418446 14.205675163730163 -14 5 0
1033 3 1.8888607801620119 1.5955134861723639 16.35171214412258 -14 5 0
1014 3 3.131101192587096 0.745638710772228 14.167153101079744 -15 5 0
1015 3 3.145085352580887 3.1945090607162414 14.2144570456563 -15 5 0
1088 3 4.403815876898776 2.3894297793986854 16.42725427259123 -15 5 0
995 2 5.785842971729765 1.5372598811507423 14.149048601346976 -15 5 0
1076 3 7.119432190078786 0.6505824780817865 16.413331239419687 -15 5 0
1077 2 7.128085000207257 3.2772753119839155 16.455652559744724 -15 5 0
1002 3 8.446208527919348 2.3703133441410174 14.128514871910399 -15 5 0
1057 3 9.70763249475573 1.5585126341519693 16.392391651833336 -15 5 0
976 2 10.948572916427027 3.261601841312242 14.181485025653865 -15 5 0
975 3 10.981900258072717 0.6911995960339349 14.17504514280851 -15 5 0
1045 3 14.866082085432673 3.292490187111293 16.456266126865014 -15 5 0
1044 3 14.847555739907945 0.7342048142657929 16.34599913976397 -15 5 0
1063 3 12.288124095338201 2.361243083400334 16.43820314240592 -15 5 0
950 3 13.55801183421398 1.4887119018643187 14.183402513025383 -15 5 0
984 2 13.556592023638816 4.1268861199000515 14.229360223280414 -15 5 0
1049 3 1.8413130099046957 4.1446366178104235 16.463959731210668 -14 5 0
958 2 0.5971732889521126 5.050170345859096 14.262086890464301 -14 5 0
367 2 0.5271702836417571 7.969433633703955 14.235699985742615 -14 4 0
452 2 1.7982902138804013 7.001080628322014 16.532044274220887 -14 4 0
425 2 3.148561320149105 6.014090849355721 14.220439645720294 -15 4 0
1020 2 5.778843974419736 4.171616765176609 14.168963809555281 -15 5 0
1089 2 4.417779284294574 5.095437711769077 16.514021609112657 -15 5 0
403 2 5.752146758119325 7.024704101308222 14.229520898792938 -15 4 0
506 2 4.425298197382137 8.03162139831523 16.548405325860806 -15 4 0
487 2 7.0854684068172205 6.097154629023861 16.543854989434138 -15 4 0
1081 3 9.71594459758708 4.182597320643884 16.492380485421958 -15 5 0
468 2 9.711537805027998 7.052954948464016 16.501866250356635 -15 4 0
1003 2 8.463210515059762 5.084234398031073 14.202079612438908 -15 5 0
407 2 8.352936460183276 7.994942231926202 14.234088271107808 -15 4 0
381 3 10.947895124746015 6.055972845210519 14.22765793447312 -15 4 0
474 3 12.195689982995225 7.9997611159124595 16.535256178487945 -15 4 0
1064 2 12.239721011697988 5.154490033217279 16.479902167515412 -15 5 0
458 3 14.795637150071801 6.045419473461863 16.54135138532468 -15 4 0
363 2 13.449153625750542 6.991416658058115 14.279783749205743 -15 4 0
1046 3 0.5799809691946347 2.485408075363279 18.4611169622133 -14 5 0
1031 3 1.8680604775527003 1.6376196533600254 20.465442021380724 -14 5 0
1084 3 3.12578199812558 3.3501225256679183 18.510892640949457 -15 5 0
1083 3 3.168183349239992 0.7290295848021097 18.450435139093702 -15 5 0
1073 3 7.052124827681128 0.7460356227835395 20.483592862462256 -15 5 0
1072 3 5.743214968040663 1.5820262886820158 18.497056160589473 -15 5 0
1085 3 4.44366815978905 2.5250677245208126 20.48785801278532 -15 5 0
1074 3 7.043420752408467 3.431010731700828 20.50789837252482 -15 5 0
1078 3 8.410378820001517 2.4609943997816144 18.54312182417558 -15 5 0
1054 3 9.649744862420636 1.6378360910742813 20.487058667103117 -15 5 0
1059 3 10.947891259224885 3.3592788855998585 18.503240283382343 -15 5 0
1058 3 10.965050689728084 0.7341848778870069 18.45589817766374 -15 5 0
1055 3 10.931950224949029 0.7695088129788676 22.448942068853317 -15 5 0
1040 3 14.819564763933595 0.7492366160649443 20.458550482350756 -15 5 0
1041 3 14.799108332172402 3.4327916731250308 20.48692373720702 -15 5 0
1039 3 13.548513457753828 1.603298931468959 18.4550721303505 -15 5 0
1060 3 12.223504472317096 2.5377523951293117 20.47635733185661 -15 5 0
1107 3 13.507878421026822 1.668302262581436 22.446743645485466 -15 5 0
1048 3 1.844464060325612 4.334496518243602 20.485054194297255 -14 5 0
1047 3 0.5431348919254065 5.1726698637822635 18.527757184515394 -14 5 0
451 3 1.8513160095989298 7.079866602020431 20.511228633215126 -14 4 0
501 3 3.1308340896544897 6.116914167084215 18.62452143165853 -15 4 0
460 3 0.533759847757275 7.996065618206413 18.61630215683379 -14 4 0
1090 3 5.747925406931633 4.267181165860809 18.61688763510969 -15 5 0
1086 3 4.440429486946903 5.247916238801786 20.516095360878023 -15 5 0
483 3 5.745207393649784 7.077619980164597 18.648486371101367 -15 4 0
484 3 7.052604255619157 6.169262786373909 20.51199524837969 -15 4 0
503 3 4.453909140670421 8.012486747147864 20.516672368349933 -15 4 0
1080 3 9.643524688506938 4.33841899325403 20.503945894848943 -15 5 0
1079 3 8.415803662941938 5.174385211682392 18.594102900398763 -15 5 0
489 3 8.367904761927653 8.030317598826192 18.625689191875047 -15 4 0
466 3 9.644248618673293 7.093787319058694 20.508297756079795 -15 4 0
469 3 10.951307744108753 6.131654513824047 18.60357347415798 -15 4 0
537 3 10.921187584372403 6.193748983967726 22.451454463639205 -15 4 0
1065 3 13.563374172342012 4.2542678331528725 18.545187861897382 -15 5 0
455 3 14.786753953635367 6.162821661143214 20.489673484909886 -15 4 0
1061 3 12.228167975607565 5.251237223125126 20.501398272676933 -15 5 0
454 3 13.495704159810012 7.059859760758104 18.548978051238766 -15 4 0
1098 3 1.867099344245108 1.6774442821044062 24.411151216884797 -14 5 0
1042 3 0.5692404920604212 2.566211607903166 22.44663948565079 -14 5 0
1149 3 3.1482309207298202 3.465413793471975 22.452370434633927 -15 5 0
1082 3 3.170197264904661 0.7638526955983247 22.45130033037192 -15 5 0
1110 3 0.5672132543263795 2.586760178785873 26.370197433855473 -14 5 0
1146 3 3.1529752368083037 3.489137062709945 26.373818546741642 -15 5 0
1145 3 3.1622240870262157 0.7792698951749062 26.372427081586743 -15 5 0
1137 3 5.746749665474715 1.6628998455855977 22.461198683381458 -15 5 0
1150 3 4.448326938508036 2.5805039719223504 24.416624032256497 -15 5 0
1139 3 7.029818217123033 3.4881769917318746 24.416416796611884 -15 5 0
1138 3 7.046916705001458 0.774301829937204 24.41900777635173 -15 5 0
1134 3 5.744266572042115 1.6832199187887589 26.375678557457782 -15 5 0
1075 3 8.324025572234454 2.57179866935789 22.45865836588212 -15 5 0
1121 3 9.623436931089426 1.681838663174078 24.412985040227266 -15 5 0
1126 3 10.913239975858444 3.4762009550668655 22.453131944700914 -15 5 0
1123 3 10.910366792425034 3.4914941449928505 26.370724261348226 -15 5 0
1140 3 8.326509781790636 2.588268177216789 26.373687620894508 -15 5 0
1122 3 10.921151757575863 0.7808848218435397 26.369940722366536 -15 5 0
538 3 12.228657818917444 7.998701495774948 24.407442886046987 -15 4 0
1104 3 13.50167619516087 1.6847471499939612 26.369070214440033 -15 5 0
1109 3 14.790852815884097 3.4852829232102582 24.408976618340702 -15 5 0
1127 3 12.20534013147531 2.5851275541988845 24.41041143715995 -15 5 0
1108 3 14.80427641392847 0.7764206963166075 24.408431236038737 -15 5 0
1113 3 1.8614026969664121 4.3849287577906875 24.410333950430413 -14 5 0
1111 3 0.5713382547291125 5.292234561458235 26.370567127619204 -14 5 0
1043 3 0.5636737957760123 5.276898180918932 22.449639995544874 -14 5 0
518 3 1.876706032167105 7.091613307034909 24.40742345314726 -14 4 0
499 3 3.1546008783053323 6.1822746812149685 22.452688386954595 -15 4 0
561 3 3.161692890862143 6.194732542626406 26.37264868266047 -15 4 0
524 3 0.5878979269370076 7.997278514595031 26.367804024004872 -14 4 0
457 3 0.5844697030490035 7.994577340048407 22.447350599274202 -14 4 0
565 3 4.4698319812945515 7.9962656687407305 24.410737251368563 -15 4 0
1087 3 5.735399956602005 4.375414377411789 22.458420383517627 -15 5 0
1152 3 5.7387865369914355 4.393460284710221 26.375598928798237 -15 5 0
1151 3 4.449063554070973 5.290170938011615 24.412318339253662 -15 5 0
482 3 5.75363143517766 7.095889357140418 22.45356366298639 -15 4 0
549 3 7.038394344171975 6.197272154793539 24.41270580518718 -15 4 0
546 3 5.751512225803518 7.098678915605264 26.374846243441734 -15 4 0
555 3 8.349485340927213 8.005629321787328 22.45051918636217 -15 4 0
1144 3 9.615228068263216 4.3938627157617605 24.411124176210155 -15 5 0
533 3 10.918953616683982 6.197444210787231 26.370148491163864 -15 4 0
532 3 9.632783672457027 7.099829032355156 24.409303365680287 -15 4 0
1143 3 8.323427474616716 5.288710759627436 22.45544346512389 -15 5 0
1141 3 8.32755103464121 5.296454654535933 26.373160328352935 -15 5 0
551 3 8.344260363854291 8.001076954629719 26.372600936946878 -15 4 0
453 3 13.509575920982591 7.09347838091995 22.448848049283043 -15 4 0
519 3 13.513258097774942 7.096902974344025 26.36859024990892 -15 4 0
1128 3 12.20622754844707 5.294800168932552 24.410136710897557 -15 5 0
522 3 14.800980567317957 6.191712174198067 24.40837775060614 -15 4 0
1129 3 13.498919089581413 4.392073350745154 26.369957888085786 -15 5 0
1062 3 13.494867429401639 4.379750197890275 22.452607302336688 -15 5 0
471 3 12.221204341867544 8.00686220381262 20.488721831205478 -15 4 0
1095 3 1.8562367916771367 1.6874076951196861 28.32976238243008 -14 5 0
600 3 0.5472139214197111 2.591415202877184 30.291561594058127 -14 5 -1
644 3 3.13197923906432 3.492887758472512 30.2934254493064 -15 5 -1
643 3 3.146486009316405 0.7856715371404652 30.2867681674183 -15 5 -1
618 3 12.174352040212797 5.293651743731835 32.25173854773047 -15 5 -1
1135 3 7.037295239593754 0.7821429732100632 28.331019794653496 -15 5 0
1147 3 4.440268158423522 2.5902826769060723 28.33312997955552 -15 5 0
630 3 5.728660559483151 1.6867298860359048 30.28918014243467 -15 5 -1
1136 3 7.025896338165856 3.493580269708258 28.334130350341546 -15 5 0
1118 3 9.618350626194374 1.6865153107323803 28.330658924180508 -15 5 0
636 3 8.311372241008328 2.5893754140999476 30.29101729781062 -15 5 -1
616 3 10.890940875572673 3.494186927634562 30.294102623782738 -15 5 -1
615 3 10.906904208608722 0.7841981407221785 30.290454963790648 -15 5 -1
1106 3 14.782754375915896 3.49360341927689 28.33216196031454 -15 5 0
1124 3 12.198895518760933 2.590766391223813 28.331121942411457 -15 5 0
594 3 13.483117205930503 1.6886783248174089 30.291232640416982 -15 5 -1
1105 3 14.792423627323927 0.784303949836072 28.327596110012895 -15 5 0
1112 3 1.8522506169810105 4.395867871452985 28.334229756817678 -14 5 0
517 3 1.8665464877145364 7.10115056946136 28.332234690277648 -14 4 0
601 3 0.5481572268012255 5.301813905324539 30.294920605435873 -14 5 -1
57 3 3.139757601700733 6.205645348781165 30.296256507031636 -15 4 -1
13 3 0.574826190390329 8.006520082026986 30.29049014968528 -14 4 -1
648 3 5.7230313509266955 4.395928070880368 30.295286044397965 -15 5 -1
1148 3 4.441367362911205 5.299047882473669 28.337146478083035 -15 5 0
563 3 4.459224762785294 8.00359152808705 28.336948361601934 -15 4 0
38 3 5.74025554039264 7.105943727081313 30.29886568864101 -15 4 -1
547 3 7.0334207317312805 6.200721167125373 28.335921371412486 -15 4 0
1142 3 9.61289405043868 4.3956777069653015 28.332457611898146 -15 5 0
531 3 9.625906427960285 7.10152382899394 28.331706405316975 -15 4 0
45 3 8.33540151895633 8.005313992217223 30.295713027729658 -15 4 -1
637 3 8.311953728522925 5.300129173074045 30.295052463508267 -15 5 -1
23 3 10.900100593467764 6.203206128035465 30.292532659746243 -15 4 -1
620 3 13.474481889540225 4.398677774136835 30.294154604250064 -15 5 -1
520 3 14.792436190730617 6.198783558344223 28.331061669667953 -15 4 0
1125 3 12.201281148930303 5.297295394920494 28.330958936599025 -15 5 0
6 3 13.491533670073725 7.105318749981165 30.289587973113893 -15 4 -1
535 3 12.21859857064716 8.002440256144387 28.328684440435353 -15 4 0
639 3 3.1308204317800854 0.7780554106550215 34.236337035969214 -15 5 -1
584 3 1.835957160617613 1.6821753225188611 32.253132747069266 -14 5 -1
597 3 0.5335260633098992 2.551188097861621 34.23286205008541 -14 5 -1
640 3 3.1226261584093775 3.4498678518389454 34.22802280595949 -15 5 -1
645 3 4.4194187774370475 2.577706098037362 32.25342389488134 -15 5 -1
626 3 5.709859656790539 1.6530571094323496 34.22888410320665 -15 5 -1
632 3 7.005962512085305 3.478452820594855 32.2529622219396 -15 5 -1
631 3 7.020483679021823 0.7790507952180715 32.251168155387724 -15 5 -1
611 3 10.889914258533196 0.7601124115083743 34.24437613486909 -15 5 -1
633 3 8.288053303756362 2.5400016201978084 34.2286886269121 -15 5 -1
610 3 9.59584600467967 1.6758106517161573 32.25587533731558 -15 5 -1
612 3 10.889122574863292 3.4331550446366386 34.22053589286222 -15 5 -1
595 3 14.775694479939157 0.7831031096969784 32.25386223806911 -15 5 -1
596 3 14.75897983297419 3.4800997912306246 32.2551884197915 -15 5 -1
617 3 12.174421048430279 2.5765377417087296 32.2580673080117 -15 5 -1
590 3 13.47341041674399 1.6524851398004121 34.24044042313213 -15 5 -1
619 3 13.485085474824343 4.333817403937069 34.20883170553764 -15 5 -1
602 3 1.8303226196713451 4.383891741421565 32.25533703795647 -14 5 -1
598 3 0.5445598585937339 5.233086355026263 34.19642900325598 -14 5 -1
2 3 1.852501389982059 7.104760133482548 32.24864132768289 -14 4 -1
53 3 3.188045602436809 6.136338779976565 34.175135801779106 -15 4 -1
9 3 0.5305835227217248 8.041462059091074 34.15553491457907 -14 4 -1
647 3 5.706927349838288 4.342679022326682 34.2187281148613 -15 5 -1
39 3 7.01988041453449 6.1957680308657 32.25591965001931 -15 4 -1
646 3 4.43102865965966 5.282835237301237 32.24802793744174 -15 5 -1
35 3 5.728223760350326 7.092786177763575 34.19772597648376 -15 4 -1
59 3 4.452286487253465 8.012485834037623 32.25581713909357 -15 4 -1
638 3 9.587802367378522 4.386252846851003 32.25460868192551 -15 5 -1
41 3 8.304351767134932 8.025011407560559 34.20313334445838 -15 4 -1
19 3 10.908130198301924 6.167904420077757 34.19980660891601 -15 4 -1
634 3 8.30555741898931 5.250938955101177 34.20269398157856 -15 5 -1
18 3 9.609026843591046 7.103741020833775 32.25607413196194 -15 4 -1
7 3 14.766582129041131 6.1989523655373775 32.24686514918547 -15 4 -1
25 3 12.200033330680082 8.012347356887997 32.250189156422095 -15 4 -1
3 3 13.501793798147869 7.088622992037357 34.189260883256004 -15 4 -1
672 3 0.6162749833773368 2.424272717096355 38.249588259371905 -14 5 -1
581 3 1.8449990433681573 1.6307856501175437 36.25246531411238 -14 5 -1
715 3 3.1607802126784166 0.7276733144943363 38.342985115991546 -15 5 -1
716 3 3.194387739804689 3.3057520885025284 38.2413681020666 -15 5 -1
641 3 4.417989701970651 2.4960149818107356 36.23083311424526 -15 5 -1
702 3 5.706652372813372 1.5493708253699814 38.3098103429704 -15 5 -1
628 3 6.976596793262162 3.3506151232890375 36.19331140555708 -15 5 -1
627 3 7.00144702080916 0.7339973353632442 36.255041356402906 -15 5 -1
607 3 9.592306911122405 1.5980907317715094 36.24886593386198 -15 5 -1
708 3 8.32976267631038 2.338631348397476 38.26080196093641 -15 5 -1
688 3 10.955291442430257 3.234397070497589 38.24758767696737 -15 5 -1
687 3 10.885703072677146 0.7023064817484375 38.34335365687397 -15 5 -1
592 3 14.795120085442035 3.3899477592059415 36.22994692636856 -15 5 -1
613 3 12.192441282775818 2.4861166587629815 36.24197349226541 -15 5 -1
666 3 13.475770456710638 1.5553338140267476 38.30323673887361 -15 5 -1
591 3 14.772624171068728 0.7590242024267239 36.26120655042334 -15 5 -1
692 3 13.544391915448355 4.180192168775686 38.191418396986855 -15 5 -1
599 3 1.8616367089539647 4.2534145107683745 36.22824747504148 -14 5 -1
673 3 0.629559289456559 5.1460253853787545 38.20278681405805 -14 5 -1
85 3 0.5909808717037536 7.981195040761066 38.24491111541881 -14 4 -1
1 2 1.8612383117307014 7.05980172005293 36.19023804684753 -14 4 -1
129 3 3.125070379290268 6.051454316697928 38.26257699909739 -15 4 -1
720 3 5.692498675228999 4.157068865549287 38.19792770429945 -15 5 -1
642 3 4.432163473258188 5.1753482280966425 36.19791009392406 -15 5 -1
110 2 5.6817408831491925 7.052136616118722 38.17574642110126 -15 4 -1
36 3 7.0013954392709445 6.123575434693299 36.08811990282449 -15 4 -1
635 3 9.639257828571742 4.228512102910534 36.13626553006844 -15 5 -1
117 2 8.284210186296653 8.06955206006011 38.157778067009225 -15 4 -1
709 2 8.29667124421092 5.0993385517358885 38.17505979596953 -15 5 -1
17 3 9.605370050275896 7.076012789850584 36.06419396317406 -15 4 -1
95 2 10.939974894164578 6.071173246505536 38.157426225394815 -15 4 -1
4 3 14.814805069637464 6.078047967359426 36.133255852289096 -15 4 -1
614 3 12.258764686389075 5.149498804542097 36.128182501240026 -15 5 -1
78 2 13.57018924565473 7.041484159061136 38.156773140033536 -15 4 -1
21 3 12.211004963294323 8.018211417792518 36.05171103786558 -15 4 -1
669 2 0.7043229850285668 2.308314458344704 42.777934441814075 -14 5 -1
656 3 1.9508743376996047 1.4836605347101963 40.475066565167694 -14 5 -1
712 3 3.2287550665547817 3.164795486010421 42.746980154081626 -15 5 -1
711 3 3.213534703366591 0.663068670349597 42.79983695216865 -15 5 -1
717 3 4.438480004922765 2.2978395349714313 40.50363059484732 -15 5 -1
719 2 5.711416029878454 4.091697715741603 42.77457471137719 -15 5 -1
698 3 5.768853925318737 1.4008606368738048 42.77644823330467 -15 5 -1
704 2 7.023057974162356 3.1648807693268837 40.4683038309545 -15 5 -1
703 3 7.018074660547482 0.6092788659970823 40.540158617905085 -15 5 -1
682 3 9.624474439614632 1.4285081150132268 40.51185213868247 -15 5 -1
705 3 8.310647407587423 2.2300995172611837 42.763881462487134 -15 5 -1
684 2 10.908802398344044 3.1724346704251025 42.765035704056885 -15 5 -1
683 3 10.882712315558795 0.5858493757964087 42.76116779645812 -15 5 -1
710 2 9.650697895318354 4.10735893540897 40.445925917555705 -15 5 -1
668 2 14.830376161412682 3.231330671834439 40.39749812204515 -15 5 -1
667 3 14.819676927907738 0.6245097821765129 40.478067026540415 -15 5 -1
662 2 13.504257486609973 1.4557476832580232 42.78836785740705 -15 5 -1
689 3 12.200951325027832 2.305473823573448 40.408212240069204 -15 5 -1
691 2 13.53115657256693 4.184308195248954 42.76924494025499 -15 5 -1
674 2 1.9385151410636685 4.172762900001727 40.428011838495536 -14 5 -1
670 2 0.626763070318808 5.13118596750834 42.76715760350874 -14 5 -1
74 3 1.880492411244537 7.037041834953409 40.389594339714805 -14 4 -1
81 2 0.5833617916779131 8.018919722982744 42.76847076739423 -14 4 -1
125 2 3.1564959684954115 6.070307316056803 42.752810836939524 -15 4 -1
718 2 4.451875505317986 5.089419164475683 40.418923429010235 -15 5 -1
107 2 5.725955907132025 7.0521376674397755 42.78673997773211 -15 4 -1
131 2 4.384060819225776 8.007508294486586 40.46205171150695 -15 4 -1
111 2 7.02204752418682 6.0749425891333315 40.46221973464659 -15 4 -1
706 2 8.323215247458034 5.079488324841892 42.78063843961727 -15 5 -1
90 2 9.61041788645439 7.064073514135421 40.4594939603239 -15 4 -1
113 2 8.300579519184625 8.05817850114325 42.786703670067205 -15 4 -1
91 2 10.912186414687357 6.093234528829722 42.782665604992694 -15 4 -1
79 2 14.90119366260914 6.096530422096782 40.41220185341196 -15 4 -1
97 2 12.198214046834797 8.039464897861691 40.45351561925825 -15 4 -1
75 2 13.506391974221717 7.0720476800195495 42.78782256076377 -15 4 -1
690 2 12.253716952392557 5.08673578775089 40.42427189634847 -15 5 -1
55 3 4.47138021471694 8.047070171447412 36.10902068369324 -15 4 -1
750 2 0.6113685287423978 2.2511245194468406 47.48030004734997 -14 5 -1
653 3 1.9018320851294754 1.409189065977284 45.12757069848759 -14 5 -1
806 2 3.1747475826912885 3.1853394182421044 47.49187157205667 -15 5 -1
805 3 3.21248130125781 0.5428850055953068 47.46106905134231 -15 5 -1
671 2 1.897876622340491 4.1405776928130065 45.1064480163216 -14 5 -1
713 2 4.449063053308844 2.2568974840333142 45.10185675082454 -15 5 -1
789 3 5.758125253928536 1.3739188751265912 47.48847142015029 -15 5 -1
700 2 7.047031406949231 3.169284910540207 45.09849522488813 -15 5 -1
699 3 7.007125869502716 0.5533944955455926 45.13451374524248 -15 5 -1
795 2 8.306393428486848 2.2518308195513708 47.48624418235144 -15 5 -1
679 2 9.654212985961705 1.3840030229768367 45.10186472410933 -15 5 -1
770 2 10.935241405446032 3.1893148658536012 47.46676892016735 -15 5 -1
769 3 10.940334460805786 0.5250435030580293 47.49018358577165 -15 5 -1
664 2 14.803659348761053 3.1988397013378713 45.13664873616033 -15 5 -1
685 3 12.237093170942662 2.292269669936679 45.13175071735635 -15 5 -1
744 2 13.514982068317636 1.352709510733808 47.484875635956136 -15 5 -1
663 3 14.856226420623313 0.5698409745931666 45.13961075584334 -15 5 -1
751 2 0.5649867763188646 5.129430594547772 47.50766803310826 -14 5 -1
73 2 1.8566811012185809 7.0723681797838935 45.14181408160197 -14 4 -1
217 2 3.1403054709800555 6.097027608606925 47.50214492945031 -15 4 -1
160 2 0.5408549215330899 8.062680395108035 47.51784769946964 -14 4 -1
810 2 5.737145559691748 4.13907987353507 47.493238920328295 -15 5 -1
714 2 4.44916429277863 5.112960043067895 45.12642434694228 -15 5 -1
127 2 4.428137406212388 8.046597195763106 45.13447626456015 -15 4 -1
193 2 5.7185162346891 7.077683397053323 47.5019760067017 -15 4 -1
108 2 7.022410930356153 6.089391962962261 45.13504382543434 -15 4 -1
707 2 9.630977623380632 4.162090074767236 45.1175914844163 -15 5 -1
796 2 8.319255251225417 5.127789488945783 47.492030695648616 -15 5 -1
89 2 9.603271104969226 7.076433604465741 45.139559911675434 -15 4 -1
174 2 10.905532654052845 6.104918568094944 47.50048308463977 -15 4 -1
201 2 8.304947483233503 8.058518425342434 47.505192712919104 -15 4 -1
93 2 12.184102003776188 8.055299398484669 45.15266643062609 -15 4 -1
774 2 13.506130581544804 4.169168750342174 47.500642367802875 -15 5 -1
76 2 14.79954341472092 6.104855696836806 45.14581323279658 -15 4 -1
686 2 12.211515858724095 5.109760123751716 45.13292695984111 -15 5 -1
153 2 13.484996948531316 7.085986264865205 47.51387773693075 -15 4 -1
729 2 1.8553484289649167 1.3367859454954982 49.89417757916479 -14 5 -1
747 3 0.5517133799350313 2.2031573347277162 52.25233837152322 -14 5 -1
801 2 3.1236750850533808 3.131459912151794 52.258412545908705 -15 5 -1
800 3 3.1791876067872846 0.5674817970016334 52.25560931436729 -15 5 -1
783 3 5.723337818564526 1.3774101480060819 52.233486348169485 -15 5 -1
807 2 4.478900220419062 2.2328264796895065 49.86323507301599 -15 5 -1
791 2 7.030809149395799 3.1795858930210903 49.86024470730925 -15 5 -1
790 3 7.023635033769136 0.5187882614101273 49.848286359450356 -15 5 -1
809 2 5.717474184190166 4.1105574985183955 52.21999084750882 -15 5 -1