LAMMPS (22 Dec 2022)
OMP_NUM_THREADS environment is not set. Defaulting to 1 thread. (../comm.cpp:98)
  using 1 OpenMP thread(s) per MPI task
# general variables
variable	temperature equal 300 #change this to the temperature of interest
variable	nsteps_run equal 5000000

# general settings
units		metal
dimension 3
boundary	p p p

#processors      3 3 3
atom_style	atomic

# ------------------- ATOM DEFINE ------------------------------

variable        latparam equal 3.14489999999968             #variable

variable        xl equal 0
variable        xh equal 3
variable        yl equal 0
variable        yh equal 3
variable        zl equal 0
variable        zh equal 16

lattice         bcc ${latparam} orient x 1 1 -2 orient y 1 1 1 orient z 1 -1 0
lattice         bcc 3.14489999999968 orient x 1 1 -2 orient y 1 1 1 orient z 1 -1 0
Lattice spacing in x,y,z = 5.1356002 5.4471266 4.4475602
region          mybox block ${xl} ${xh} ${yl} ${yh} ${zl} ${zh}
region          mybox block 0 ${xh} ${yl} ${yh} ${zl} ${zh}
region          mybox block 0 3 ${yl} ${yh} ${zl} ${zh}
region          mybox block 0 3 0 ${yh} ${zl} ${zh}
region          mybox block 0 3 0 3 ${zl} ${zh}
region          mybox block 0 3 0 3 0 ${zh}
region          mybox block 0 3 0 3 0 16

create_box      5 mybox
Created orthogonal box = (0 0 0) to (15.406801 16.34138 71.160964)
  1 by 2 by 8 MPI processor grid

mass 1 180.948
mass 2 92.9064
mass 3 50.9415
mass 4 95.94
mass 5 183.84

create_atoms 3 box
Created 1152 atoms
  using lattice units in orthogonal box = (0 0 0) to (15.406801 16.34138 71.160964)
  create_atoms CPU = 0.001 seconds
set type 3 type/ratio 2 0.4 384
Setting atom values ...
  460 settings made for type/ratio

# ----------------------- FORCE FIELDS -----------------------
pair_style mlip mlip.ini
pair_coeff * *

# ------------------------- SETTINGS --------------------------
timestep 0.001
delete_atoms overlap 2 all all
System init for delete_atoms ...
Neighbor list info ...
  update: every = 1 steps, delay = 0 steps, check = yes
  max neighbors/atom: 2000, page size: 100000
  master list distance cutoff = 6.8
  ghost atom cutoff = 6.8
  binsize = 3.4, bins = 5 5 21
  2 neighbor lists, perpetual/occasional/extra = 1 1 0
  (1) command delete_atoms, occasional, copy from (2)
      attributes: full, newton on
      pair build: copy
      stencil: none
      bin: none
  (2) pair mlip, perpetual
      attributes: full, newton on
      pair build: full/bin/atomonly
      stencil: full/bin/3d
      bin: standard
Deleted 0 atoms, new total = 1152
velocity all create ${temperature} 4928459 rot yes dist gaussian
velocity all create 300 4928459 rot yes dist gaussian

fix 1 all atom/swap 1 1 114514 ${temperature} types 3 2
fix 1 all atom/swap 1 1 114514 300 types 3 2
fix temp all npt temp ${temperature} ${temperature} 0.1 iso 0 0 0.1
fix temp all npt temp 300 ${temperature} 0.1 iso 0 0 0.1
fix temp all npt temp 300 300 0.1 iso 0 0 0.1
thermo 1000
thermo_style custom step pe ke etotal time cpu tpcpu

dump 1 all custom 20000 dump.* id type x y z
run ${nsteps_run}
run 5000000
Neighbor list info ...
  update: every = 1 steps, delay = 0 steps, check = yes
  max neighbors/atom: 2000, page size: 100000
  master list distance cutoff = 6.8
  ghost atom cutoff = 6.8
  binsize = 3.4, bins = 5 5 21
  1 neighbor lists, perpetual/occasional/extra = 1 0 0
  (1) pair mlip, perpetual
      attributes: full, newton on
      pair build: full/bin/atomonly
      stencil: full/bin/3d
      bin: standard
Per MPI rank memory allocation (min/avg/max) = 4.345 | 4.351 | 4.355 Mbytes
   Step         PotEng         KinEng         TotEng          Time           CPU           T/CPU     
         0  -10812.172      44.633528     -10767.538      0              0              0            
      1000  -10809.424      46.255164     -10763.169      1              111.95313      0.0089323092 
      2000  -10814.375      45.362955     -10769.012      2              225.1876       0.0088312336 
      3000  -10814.193      47.63238      -10766.561      3              341.18073      0.0086212002 
      4000  -10816.122      44.386673     -10771.735      4              456.42419      0.0086772819 
      5000  -10815.555      43.488661     -10772.066      5              571.56861      0.0086847452 
      6000  -10817.275      44.280105     -10772.995      6              689.02951      0.0085134719 
      7000  -10818.868      45.050956     -10773.817      7              804.78005      0.008639268  
      8000  -10818.442      44.63754      -10773.804      8              921.41396      0.0085738361 
      9000  -10817.331      46.57581      -10770.755      9              1036.7017      0.0086739473 
     10000  -10819.958      44.871899     -10775.086      10             1153.933       0.0085301453 
     11000  -10818.163      46.432606     -10771.73       11             1271.5102      0.0085050513 
     12000  -10820.33       43.680691     -10776.649      12             1388.1035      0.0085768258 
     13000  -10821.273      42.899796     -10778.373      13             1503.9974      0.0086285809 
     14000  -10820.395      44.806197     -10775.589      14             1619.8483      0.0086317821 
     15000  -10823.097      43.616459     -10779.481      15             1735.8883      0.0086177157 
     16000  -10820.524      43.648231     -10776.875      16             1852.1941      0.0085980274 
     17000  -10823.18       44.465849     -10778.714      17             1970.8804      0.0084255734 
     18000  -10821.546      45.223443     -10776.323      18             2090.0917      0.008388464  
     19000  -10823.691      42.344117     -10781.346      19             2209.0243      0.0084081226 
     20000  -10822.683      45.933891     -10776.749      20             2326.5667      0.0085075708 
     21000  -10824.254      43.91951      -10780.335      21             2442.7171      0.0086095243 
     22000  -10823.432      46.383871     -10777.049      22             2560.8796      0.0084629197 
     23000  -10822.567      41.371232     -10781.196      23             2680.9073      0.0083314121 
     24000  -10823.438      45.791467     -10777.647      24             2802.1099      0.008250648  
     25000  -10824.84       43.673059     -10781.167      25             2924.3571      0.0081801447 
     26000  -10822.483      45.285885     -10777.197      26             3047.3268      0.0081320887 
     27000  -10824.563      43.364326     -10781.199      27             3172.553       0.0079855492 
     28000  -10825.248      45.49529      -10779.753      28             3296.8778      0.008043444  
     29000  -10825.872      44.174077     -10781.698      29             3422.1417      0.0079831479 
     30000  -10825.237      44.460207     -10780.776      30             3545.6716      0.0080952097 
     31000  -10822.823      42.863846     -10779.959      31             3671.3515      0.0079567167 
     32000  -10828.891      43.456646     -10785.435      32             3797.6278      0.0079191474 
     33000  -10826.884      45.250622     -10781.633      33             3923.1303      0.0079679647 
     34000  -10824.534      44.376588     -10780.158      34             4048.1944      0.0079959001 
     35000  -10826.818      44.969007     -10781.849      35             4173.3342      0.0079910614 
     36000  -10827.6        43.838193     -10783.762      36             4298.9836      0.0079586557 
     37000  -10826.152      44.808419     -10781.343      37             4427.3512      0.0077901294 
     38000  -10826.759      43.499221     -10783.26       38             4556.0242      0.0077716344 
     39000  -10824.891      43.964422     -10780.927      39             4684.2554      0.007798414  
     40000  -10827.432      43.439887     -10783.992      40             4812.4381      0.0078013666 
     41000  -10826.353      44.768016     -10781.585      41             4941.1762      0.0077677092 
     42000  -10826.371      42.774639     -10783.596      42             5073.2251      0.007572954  
     43000  -10826.777      45.581674     -10781.196      43             5201.0271      0.007824601  
     44000  -10829.415      43.380123     -10786.035      44             5327.9344      0.0078797654 
     45000  -10827.757      43.969613     -10783.788      45             5454.256       0.0079163036 
     46000  -10828.541      43.139556     -10785.402      46             5582.7241      0.0077840323 
     47000  -10825.184      41.714105     -10783.469      47             5712.5155      0.0077046718 
     48000  -10827.586      42.351246     -10785.235      48             5841.25        0.007767927  
     49000  -10824.272      45.038469     -10779.233      49             5969.616       0.0077902255 
     50000  -10829.721      43.812791     -10785.908      50             6098.7153      0.0077459745 
     51000  -10831.119      46.990715     -10784.128      51             6228.5746      0.0077006427 
     52000  -10829.462      45.675922     -10783.786      52             6358.3616      0.0077049311 
     53000  -10828.769      43.317386     -10785.452      53             6486.2661      0.0078183304 
     54000  -10828.48       45.70279      -10782.778      54             6614.7555      0.0077827453 
     55000  -10831.018      44.930318     -10786.088      55             6742.8979      0.0078038191 
     56000  -10828.381      46.912163     -10781.469      56             6871.4273      0.0077803218 
     57000  -10828.961      44.527991     -10784.433      57             6999.5121      0.0078073235 
     58000  -10829.897      43.659553     -10786.237      58             7127.6191      0.0078059776 
     59000  -10828.899      45.25332      -10783.646      59             7255.0084      0.0078499551 
     60000  -10829.157      44.606165     -10784.55       60             7382.7614      0.0078276049 
     61000  -10830.32       44.1908       -10786.13       61             7509.4474      0.0078935304 
     62000  -10830.619      45.113966     -10785.505      62             7635.8075      0.0079138882 
     63000  -10828.589      42.611514     -10785.977      63             7761.8075      0.0079365118 
     64000  -10829.01       44.12031      -10784.89       64             7886.7988      0.0080005525 
     65000  -10829.536      42.971863     -10786.564      65             8012.0261      0.0079854792 
     66000  -10830.46       46.760324     -10783.699      66             8137.5885      0.0079641681 
     67000  -10830.879      44.940444     -10785.939      67             8262.4987      0.0080057517 
     68000  -10829.468      45.624607     -10783.843      68             8386.9236      0.0080369793 
     69000  -10830.408      44.146494     -10786.261      69             8509.8082      0.0081377148 
     70000  -10830.308      45.995264     -10784.312      70             8633.4955      0.0080849027 
     71000  -10832.523      45.490039     -10787.033      71             8757.9113      0.0080375665 
     72000  -10831.025      45.557566     -10785.467      72             8883.2416      0.0079789158 
     73000  -10830.137      42.037437     -10788.1        73             9008.848       0.007961376  
     74000  -10830.654      43.787623     -10786.866      74             9134.8413      0.0079369333 
     75000  -10829.389      45.252009     -10784.137      75             9261.728       0.0078810484 
     76000  -10832.963      45.062029     -10787.9        76             9391.0269      0.0077340127 
     77000  -10830.432      45.222989     -10785.209      77             9519.8844      0.007760512  
     78000  -10831.26       43.471952     -10787.788      78             9648.3496      0.0077842086 
     79000  -10831.105      43.791074     -10787.314      79             9777.5683      0.0077388215 
     80000  -10831.544      43.542432     -10788.001      80             9906.7935      0.0077384297 
     81000  -10830.442      43.641646     -10786.8        81             10034.553      0.0078272144 
     82000  -10833.796      45.123469     -10788.672      82             10161.792      0.0078591857 
     83000  -10830.433      43.754712     -10786.678      83             10289.66       0.0078206077 
     84000  -10830.839      44.623351     -10786.216      84             10417.906      0.0077974982 
     85000  -10833.044      45.466522     -10787.577      85             10544.618      0.0078919187 
     86000  -10830.958      45.222343     -10785.735      86             10670.41       0.0079496345 
     87000  -10833.258      45.146763     -10788.112      87             10798.193      0.0078257687 
     88000  -10832.591      45.784735     -10786.806      88             10924.507      0.0079167457 
     89000  -10832.072      45.765425     -10786.307      89             11051.662      0.0078644142 
     90000  -10832.877      46.908756     -10785.969      90             11179.407      0.007828095  
     91000  -10832.549      44.653859     -10787.896      91             11307.241      0.0078226683 
     92000  -10832.403      45.988713     -10786.414      92             11434.218      0.0078754731 
     93000  -10831.319      46.04769      -10785.271      93             11560.463      0.0079210516 
     94000  -10831.363      44.264916     -10787.098      94             11689.56       0.0077461187 
     95000  -10830.614      43.679689     -10786.934      95             11817.655      0.0078067168 
     96000  -10831.911      44.859902     -10787.051      96             11945.66       0.0078122075 
     97000  -10831.41       44.220112     -10787.19       97             12075.323      0.0077123121 
     98000  -10831.946      45.568009     -10786.378      98             12206.021      0.0076512241 
     99000  -10832.93       44.181587     -10788.748      99             12338.451      0.0075511487 
    100000  -10832.804      44.03213      -10788.772      100            12470.548      0.0075701644 
    101000  -10831.515      44.41119      -10787.104      101            12602.612      0.007572122  
    102000  -10833.797      42.764006     -10791.033      102            12735.108      0.0075473926 
    103000  -10832.708      45.47601      -10787.232      103            12868.106      0.0075188815 
    104000  -10834.057      43.594404     -10790.463      104            12997.535      0.0077262599 
    105000  -10830.381      43.921823     -10786.459      105            13126.57       0.0077498503 
    106000  -10834.299      44.071605     -10790.228      106            13255.777      0.0077395066 
    107000  -10833.316      45.089136     -10788.226      107            13385.713      0.0076960946 
    108000  -10832.784      44.625783     -10788.159      108            13515.522      0.0077036166 
    109000  -10832.19       44.582722     -10787.607      109            13644.894      0.0077296443 
    110000  -10831.752      44.851447     -10786.901      110            13775.673      0.0076465137 
    111000  -10832.437      42.643567     -10789.794      111            13906.367      0.0076514531 
    112000  -10833.512      45.871077     -10787.641      112            14037.729      0.0076125294 
    113000  -10834.882      44.012072     -10790.869      113            14168.164      0.0076666886 
    114000  -10832.294      43.761451     -10788.533      114            14298.266      0.0076862686 
    115000  -10831.409      45.785926     -10785.623      115            14428.443      0.0076818394 
    116000  -10834.556      45.341264     -10789.214      116            14558.961      0.0076617998 
    117000  -10832.2        46.091269     -10786.109      117            14690.242      0.0076172331 
    118000  -10834.152      45.28069      -10788.872      118            14821.621      0.0076115577 
    119000  -10831.728      45.300657     -10786.427      119            14952.597      0.0076349913 
    120000  -10832.264      43.600049     -10788.664      120            15083.001      0.0076684812 
    121000  -10832.918      44.794657     -10788.123      121            15214.002      0.0076335525 
    122000  -10834.883      45.478875     -10789.404      122            15345.724      0.0075917089 
    123000  -10833.353      43.760991     -10789.592      123            15476.76       0.0076314894 
    124000  -10830.34       44.101902     -10786.239      124            15607.58       0.0076441036 
    125000  -10834.132      45.760868     -10788.371      125            15738.066      0.007663663  
    126000  -10836.139      45.295083     -10790.844      126            15867.231      0.0077420192 
    127000  -10832.371      44.054787     -10788.316      127            15995.478      0.0077974508 
    128000  -10834.096      43.574038     -10790.522      128            16124.024      0.0077793654 
    129000  -10832.447      45.050651     -10787.396      129            16253.677      0.0077128815 
    130000  -10834.645      44.341337     -10790.304      130            16386.145      0.0075490018 
    131000  -10833.915      45.123045     -10788.792      131            16519.055      0.0075238662 
    132000  -10832.953      45.395522     -10787.558      132            16651.562      0.0075467591 
    133000  -10832.175      44.07268      -10788.102      133            16783.808      0.0075616709 
    134000  -10831.64       45.422872     -10786.217      134            16915.753      0.0075789336 
    135000  -10833.375      44.5189       -10788.856      135            17045.275      0.0077206758 
    136000  -10832.173      44.164432     -10788.009      136            17174.878      0.0077159061 
    137000  -10832.391      45.262452     -10787.129      137            17304.439      0.0077183346 
    138000  -10833.355      44.340971     -10789.014      138            17433.346      0.0077575432 
    139000  -10834.366      45.442392     -10788.923      139            17562.89       0.0077193779 
    140000  -10835.21       43.636586     -10791.573      140            17692.235      0.0077312592 
    141000  -10833.225      44.87784      -10788.347      141            17821.918      0.007711146  
    142000  -10832.604      43.006227     -10789.598      142            17951.457      0.0077196452 
    143000  -10832.528      44.626466     -10787.901      143            18080.794      0.0077317649 
    144000  -10833.381      43.875598     -10789.506      144            18209.864      0.0077477317 
    145000  -10832.904      46.246124     -10786.657      145            18339.693      0.0077024216 
    146000  -10834.366      44.425694     -10789.94       146            18468.474      0.007765144  
    147000  -10834.739      46.798249     -10787.941      147            18597.635      0.0077422836 
    148000  -10833.151      44.954887     -10788.196      148            18726.376      0.0077675076 
    149000  -10833.188      44.537175     -10788.65       149            18855.962      0.0077168796 
    150000  -10833.159      42.419815     -10790.739      150            18984.967      0.0077516683 
    151000  -10832.048      44.917508     -10787.13       151            19113.16       0.0078007246 
    152000  -10833.733      43.596393     -10790.136      152            19241.432      0.0077959367 
    153000  -10832.496      47.0285       -10785.468      153            19369.977      0.0077793764 
    154000  -10835.277      44.529737     -10790.747      154            19499.217      0.0077375323 
    155000  -10831.928      44.157965     -10787.77       155            19627.865      0.0077731202 
    156000  -10835.15       44.717911     -10790.432      156            19757.818      0.0076950953 
    157000  -10833.92       44.943452     -10788.977      157            19887.943      0.0076849081 
    158000  -10833.333      43.243399     -10790.09       158            20017.838      0.007698531  
    159000  -10833.099      43.975702     -10789.124      159            20147.403      0.0077181515 
    160000  -10835.089      42.95629      -10792.133      160            20276.321      0.0077568644 
    161000  -10834.956      46.303102     -10788.653      161            20405.854      0.0077200704 
    162000  -10835.012      43.94374      -10791.068      162            20535.845      0.0076928172 
    163000  -10835.034      45.343611     -10789.69       163            20666.389      0.0076602483 
    164000  -10831.847      45.00752      -10786.84       164            20794.321      0.0078166597 
    165000  -10834.258      42.945977     -10791.312      165            20922.598      0.0077955978 
    166000  -10832.485      44.305128     -10788.18       166            21049.799      0.0078615768 
    167000  -10835.501      43.740861     -10791.76       167            21177.201      0.0078491957 
    168000  -10834.082      45.155544     -10788.926      168            21303.935      0.0078905656 
    169000  -10833.717      44.20529      -10789.512      169            21432.598      0.0077721916 
    170000  -10834.11       45.026864     -10789.083      170            21559.022      0.0079099227 
    171000  -10834.622      44.668189     -10789.954      171            21688.001      0.0077532189 
    172000  -10835.005      43.906551     -10791.099      172            21816.031      0.0078106217 
    173000  -10835.757      45.257221     -10790.5        173            21944.358      0.0077925967 
    174000  -10832.785      46.257844     -10786.528      174            22072.555      0.0078005162 
    175000  -10836.257      44.282514     -10791.974      175            22199.477      0.0078788373 
    176000  -10834.676      44.65944      -10790.016      176            22328.013      0.0077799672 
    177000  -10835.765      44.106542     -10791.658      177            22457.064      0.0077488657 
    178000  -10834.99       45.975423     -10789.015      178            22587.856      0.007645718  
    179000  -10834.597      43.071294     -10791.526      179            22716.453      0.0077762475 
    180000  -10836.226      43.989341     -10792.236      180            22845.982      0.0077202502 
    181000  -10833.108      41.207382     -10791.901      181            22976.667      0.0076520006 
    182000  -10834.426      44.330603     -10790.096      182            23107.446      0.0076464788 
    183000  -10835.882      44.339525     -10791.542      183            23236.664      0.007738863  
    184000  -10835.211      44.125551     -10791.086      184            23366.424      0.0077065203 
    185000  -10834.316      44.55936      -10789.756      185            23497.952      0.0076029434 
    186000  -10835.37       45.101215     -10790.269      186            23629.732      0.0075884169 
    187000  -10837.436      44.992199     -10792.444      187            23758.886      0.0077427083 
    188000  -10832.693      43.681329     -10789.012      188            23889.585      0.0076511676 
    189000  -10836.113      42.087573     -10794.026      189            24018.768      0.0077409222 
    190000  -10834.791      44.306152     -10790.485      190            24147.785      0.0077509106 
    191000  -10837.055      46.671249     -10790.383      191            24275.715      0.0078168011 
    192000  -10832.915      45.198618     -10787.716      192            24402.869      0.0078644748 
    193000  -10835.88       44.918341     -10790.962      193            24529.101      0.0079219553 
    194000  -10834.929      42.785535     -10792.144      194            24657.072      0.0078142213 
    195000  -10834.22       45.124962     -10789.095      195            24785.338      0.0077963158 
    196000  -10836.991      45.224831     -10791.766      196            24911.433      0.0079305167 
    197000  -10834.893      44.462175     -10790.431      197            25036.798      0.0079767043 
    198000  -10835.741      43.796646     -10791.944      198            25161.203      0.0080382966 
    199000  -10835.416      45.626791     -10789.789      199            25285.25       0.0080614659 
    200000  -10834.825      45.629349     -10789.196      200            25408.578      0.0081084062 
    201000  -10834.6        45.090583     -10789.51       201            25531.602      0.0081285184 
    202000  -10838.096      43.412816     -10794.683      202            25652.907      0.0082436676 
    203000  -10836.322      46.982396     -10789.34       203            25774.277      0.0082393204 
    204000  -10835.922      44.382655     -10791.539      204            25895.797      0.00822909   
    205000  -10836.346      43.013722     -10793.333      205            26017.606      0.0082095319 
    206000  -10835.647      45.395143     -10790.252      206            26139.146      0.0082277641 
    207000  -10835.272      43.921038     -10791.351      207            26260.284      0.0082550296 
    208000  -10834.343      45.615137     -10788.728      208            26381.46       0.0082524597 
    209000  -10836.401      41.436591     -10794.964      209            26502.73       0.0082460689 
    210000  -10836.484      45.653609     -10790.831      210            26624.055      0.0082423232 
    211000  -10834.362      44.807096     -10789.555      211            26745.418      0.0082397863 
    212000  -10837.73       46.014072     -10791.716      212            26865.395      0.0083348746 
    213000  -10835.193      44.92866      -10790.264      213            26986.93       0.0082281316 
    214000  -10835.483      43.926172     -10791.556      214            27108.039      0.0082570247 
    215000  -10835.934      44.002474     -10791.932      215            27229.026      0.0082653182 
    216000  -10835.628      43.788893     -10791.839      216            27352.148      0.0081220194 
    217000  -10835.567      42.745661     -10792.821      217            27474.094      0.0082003595 
    218000  -10835.712      45.569875     -10790.142      218            27596.355      0.0081792461 
    219000  -10837.132      45.385971     -10791.746      219            27718.116      0.0082127864 
    220000  -10835.153      45.788849     -10789.364      220            27840.341      0.0081816222 
    221000  -10836.825      43.512795     -10793.312      221            27962.714      0.0081717674 
    222000  -10835.603      45.251001     -10790.352      222            28084.279      0.0082260524 
    223000  -10838.673      44.993744     -10793.68       223            28206.608      0.0081746778 
    224000  -10834.451      44.411361     -10790.04       224            28329.154      0.0081601687 
    225000  -10833.851      45.478032     -10788.373      225            28451.162      0.0081962347 
    226000  -10836.155      44.628619     -10791.526      226            28573.381      0.0081820127 
    227000  -10836.032      45.775478     -10790.257      227            28695.969      0.0081574204 
    228000  -10835.258      44.283985     -10790.974      228            28818.518      0.0081599737 
    229000  -10837.981      42.960985     -10795.02       229            28941.263      0.0081469977 
    230000  -10835.705      45.681517     -10790.024      230            29063.441      0.0081847287 
    231000  -10835.209      42.316354     -10792.893      231            29186.186      0.0081469839 
    232000  -10836.47       44.115689     -10792.354      232            29308.533      0.0081734603 
    233000  -10834.284      44.127402     -10790.157      233            29431.59       0.0081263115 
    234000  -10837.712      44.878747     -10792.833      234            29554.959      0.0081057639 
    235000  -10834.488      45.01626      -10789.472      235            29678.21       0.0081135337 
    236000  -10835.159      43.414159     -10791.745      236            29801.254      0.008127221  
    237000  -10835.721      44.833978     -10790.887      237            29923.735      0.0081645034 
    238000  -10836.291      43.486528     -10792.805      238            30047.105      0.008105717  
    239000  -10834.141      42.720738     -10791.42       239            30171.267      0.0080539601 
    240000  -10834.006      46.158332     -10787.848      240            30294.608      0.0081076335 
    241000  -10835.385      46.056267     -10789.328      241            30417.282      0.00815168   
    242000  -10838.02       47.341071     -10790.679      242            30540.765      0.0080983067 
    243000  -10835.311      45.535505     -10789.775      243            30664.516      0.0080807043 
    244000  -10837.286      42.603528     -10794.683      244            30788.266      0.0080807998 
    245000  -10836.438      45.384436     -10791.054      245            30911.125      0.0081394193 
    246000  -10837.432      43.41261      -10794.019      246            31033.832      0.0081494789 
    247000  -10836.635      43.911347     -10792.724      247            31156.729      0.0081369344 
    248000  -10836.517      45.364909     -10791.152      248            31279.769      0.0081274228 
    249000  -10836.05       43.282977     -10792.767      249            31403.43       0.0080866557 
    250000  -10835.044      45.938838     -10789.105      250            31526.819      0.0081044388 
    251000  -10837.134      44.557416     -10792.577      251            31648.609      0.0082108013 
    252000  -10833.723      45.271123     -10788.452      252            31771.437      0.0081414682 
    253000  -10835.936      44.46643      -10791.47       253            31893.875      0.0081674279 
    254000  -10834.425      45.314326     -10789.111      254            32015.581      0.0082165046 
    255000  -10835.502      42.860877     -10792.641      255            32137.169      0.0082244895 
    256000  -10836.079      45.19437      -10790.884      256            32259.103      0.0082011707 
    257000  -10835.617      43.95502      -10791.662      257            32381.622      0.0081619809 
    258000  -10836.916      42.594457     -10794.321      258            32504.161      0.0081607169 
    259000  -10833.379      44.072378     -10789.307      259            32625.427      0.0082463223 
    260000  -10835.397      43.330277     -10792.066      260            32745.869      0.0083027415 
    261000  -10836.351      44.979196     -10791.372      261            32865.842      0.0083352343 
    262000  -10831.356      45.960665     -10785.395      262            32984.365      0.0084371516 
    263000  -10836.122      43.773606     -10792.348      263            33104.12       0.0083503818 
    264000  -10837.369      44.788454     -10792.581      264            33224.653      0.0082964932 
    265000  -10835.065      44.25023      -10790.815      265            33343.137      0.0084399466 
    266000  -10836.398      44.369287     -10792.029      266            33461.392      0.0084563294 
    267000  -10835.013      45.543316     -10789.469      267            33580.804      0.0083743323 
    268000  -10836.081      45.211876     -10790.869      268            33699.388      0.0084328711 
    269000  -10835.497      46.404664     -10789.092      269            33818.486      0.0083964376 
    270000  -10836.268      43.589764     -10792.678      270            33936.605      0.0084660285 
    271000  -10835.824      44.870303     -10790.954      271            34055.774      0.0083914715 
    272000  -10837.734      44.350515     -10793.384      272            34178.44       0.0081522159 
    273000  -10835.476      45.308424     -10790.168      273            34302.452      0.0080637418 
    274000  -10835.591      42.870748     -10792.72       274            34428.312      0.0079453092 
    275000  -10834.166      43.632959     -10790.534      275            34550.056      0.0082139824 
    276000  -10837.351      44.456349     -10792.894      276            34672.755      0.0081500325 
    277000  -10835.793      44.152702     -10791.64       277            34798.356      0.0079616605 
    278000  -10836.877      45.289055     -10791.588      278            34923.496      0.0079910759 
    279000  -10834.82       44.535472     -10790.285      279            35048.38       0.0080074416 
    280000  -10837.759      44.510496     -10793.248      280            35172.745      0.0080408521 
    281000  -10837.463      44.862593     -10792.601      281            35298.931      0.0079248135 
    282000  -10837.254      44.782857     -10792.472      282            35421.958      0.0081283048 
    283000  -10837.715      44.818891     -10792.897      283            35543.398      0.0082345233 
    284000  -10838.126      45.992459     -10792.134      284            35664.988      0.0082243621 
    285000  -10837.339      44.541009     -10792.798      285            35788.092      0.008123191  
    286000  -10836.208      44.61587      -10791.592      286            35909.891      0.0082102373 
    287000  -10838.196      44.194956     -10794.001      287            36030.837      0.0082681372 
    288000  -10836.542      45.598988     -10790.943      288            36151.403      0.0082942646 
    289000  -10838.117      45.068027     -10793.049      289            36271.957      0.0082950071 
    290000  -10837.704      45.251675     -10792.453      290            36393.988      0.0081946395 
    291000  -10835.827      44.078432     -10791.749      291            36516.014      0.0081949542 
    292000  -10838.163      43.464753     -10794.699      292            36637.637      0.0082221369 
    293000  -10836.532      45.566251     -10790.966      293            36758.419      0.0082794157 
    294000  -10835.408      45.479973     -10789.928      294            36880.793      0.0081716426 
    295000  -10836.55       43.785588     -10792.764      295            37001.932      0.0082549693 
    296000  -10833.946      45.980213     -10787.966      296            37123.756      0.0082085603 
    297000  -10836.552      42.8959       -10793.656      297            37245.964      0.008182811  
    298000  -10836.804      46.26807      -10790.536      298            37367.808      0.0082071975 
    299000  -10837.317      43.857894     -10793.459      299            37489.509      0.0082168674 
    300000  -10835.13       45.338035     -10789.791      300            37610.962      0.0082336235 
    301000  -10839.149      45.499759     -10793.649      301            37732.1        0.0082550783 
    302000  -10837.389      45.228296     -10792.161      302            37852.592      0.0082992853 
    303000  -10834.839      46.325705     -10788.514      303            37972.464      0.0083422474 
    304000  -10837.251      44.791108     -10792.46       304            38093.176      0.0082841522 
    305000  -10835.183      45.009691     -10790.173      305            38213.268      0.0083269378 
    306000  -10836.516      45.819349     -10790.697      306            38334.103      0.0082757776 
    307000  -10836.569      44.468328     -10792.101      307            38455.018      0.0082702514 
    308000  -10836.32       45.078253     -10791.242      308            38576.602      0.0082247435 
    309000  -10835.259      45.242312     -10790.017      309            38698.047      0.0082342073 
    310000  -10836.49       44.817817     -10791.672      310            38819.336      0.0082447488 
    311000  -10836.941      45.646626     -10791.294      311            38942.853      0.008096105  
    312000  -10838.326      43.745634     -10794.581      312            39068.601      0.0079523724 
    313000  -10836.846      44.824374     -10792.021      313            39194.132      0.0079661463 
    314000  -10836.597      42.550827     -10794.046      314            39322.126      0.0078129029 
    315000  -10835.694      43.252688     -10792.441      315            39449.42       0.0078558452 
    316000  -10835.222      45.977793     -10789.244      316            39577.342      0.0078172646 
    317000  -10836.549      43.820058     -10792.729      317            39703.9        0.0079015091 
    318000  -10835.724      45.927519     -10789.797      318            39831.654      0.0078275108 
    319000  -10837.491      44.127047     -10793.364      319            39960.037      0.0077892269 
    320000  -10837.162      46.347231     -10790.815      320            40089.071      0.0077498484 
    321000  -10840.409      44.504774     -10795.904      321            40218.345      0.0077355053 
    322000  -10835.64       43.622244     -10792.018      322            40348.597      0.0076774546 
    323000  -10835.358      44.481471     -10790.876      323            40479.328      0.0076493143 
    324000  -10837.856      43.036323     -10794.82       324            40609.931      0.0076567558 
    325000  -10835.92       45.821935     -10790.098      325            40743.505      0.0074865113 
    326000  -10837.822      43.579056     -10794.243      326            40875.586      0.007571077  
    327000  -10837.19       46.535693     -10790.654      327            41008.595      0.0075183019 
    328000  -10836.59       44.461133     -10792.129      328            41141.511      0.0075235431 
    329000  -10837.696      44.728753     -10792.967      329            41276.465      0.0074099716 
    330000  -10838.929      44.024388     -10794.905      330            41412.069      0.0073743751 
    331000  -10835.657      43.613351     -10792.044      331            41548.086      0.0073520609 
    332000  -10837.287      43.736916     -10793.55       332            41683.733      0.007372053  
    333000  -10836.675      43.986102     -10792.689      333            41818.097      0.0074424473 
    334000  -10838.339      44.556869     -10793.782      334            41953.357      0.0073931674 
    335000  -10837.66       44.962558     -10792.698      335            42087.519      0.0074536856 
    336000  -10836.355      44.766194     -10791.589      336            42221.58       0.0074592995 
    337000  -10837.385      44.417534     -10792.967      337            42355.133      0.0074876497 
    338000  -10836.127      47.337351     -10788.79       338            42489.267      0.0074552604 
    339000  -10837.816      44.023282     -10793.793      339            42620.943      0.0075944005 
    340000  -10837.032      44.20919      -10792.823      340            42751.735      0.00764574   
    341000  -10837.273      43.917141     -10793.356      341            42882.572      0.0076430673 
    342000  -10835.619      43.044537     -10792.575      342            43014.371      0.0075873033 
    343000  -10838.231      45.330238     -10792.9        343            43147.354      0.0075197678 
    344000  -10837.175      45.635973     -10791.54       344            43278.984      0.0075970456 
    345000  -10838.496      44.329188     -10794.167      345            43410.423      0.0076080873 
    346000  -10836.517      44.880455     -10791.636      346            43541.919      0.0076048004 
    347000  -10835.489      45.217735     -10790.272      347            43672.578      0.0076535249 
    348000  -10838.378      44.496183     -10793.882      348            43803.611      0.0076316824 
    349000  -10837.857      44.733626     -10793.124      349            43934.932      0.0076149044 
    350000  -10837.095      44.198845     -10792.896      350            44064.36       0.0077263172 
    351000  -10838.755      46.930567     -10791.825      351            44195.288      0.0076377515 
    352000  -10838.642      43.682818     -10794.959      352            44324.522      0.0077379246 
    353000  -10836.822      44.359434     -10792.462      353            44453.04       0.0077809807 
    354000  -10838.447      45.618885     -10792.828      354            44581.218      0.0078016837 
    355000  -10835.685      45.48209      -10790.203      355            44709.478      0.0077966559 
    356000  -10837.875      43.510869     -10794.364      356            44837.542      0.0078085731 
    357000  -10836.562      45.56167      -10791.001      357            44963.717      0.0079254971 
    358000  -10837.326      46.413792     -10790.912      358            45089.69       0.0079382176 
    359000  -10838.135      45.575805     -10792.559      359            45215.777      0.0079310457 
    360000  -10838.626      43.178347     -10795.448      360            45339.362      0.0080916103 
    361000  -10836.328      44.988884     -10791.339      361            45460.233      0.0082732876 
    362000  -10837.027      45.624536     -10791.403      362            45581.487      0.0082471228 
    363000  -10836.92       43.911362     -10793.009      363            45703.281      0.0082106235 
    364000  -10836.345      44.548657     -10791.796      364            45822.734      0.0083714595 
    365000  -10839.487      46.444886     -10793.042      365            45940.272      0.0085078607 
    366000  -10836.349      45.529622     -10790.819      366            46059.449      0.0083908963 
    367000  -10838.703      45.474942     -10793.228      367            46177.492      0.0084714766 
    368000  -10835.753      45.147054     -10790.606      368            46294.057      0.0085789241 
    369000  -10837.581      43.229539     -10794.351      369            46411.787      0.0084940007 
    370000  -10838.094      44.982199     -10793.112      370            46528.829      0.0085439528 
    371000  -10836.587      44.664916     -10791.922      371            46645.444      0.0085752589 
    372000  -10837.859      45.49245      -10792.366      372            46761.142      0.008643135  
    373000  -10836.91       43.398466     -10793.512      373            46877.213      0.0086154641 
    374000  -10836.888      41.789004     -10795.099      374            46995.096      0.0084830092 
    375000  -10838.41       45.685241     -10792.725      375            47113.594      0.008438915  
    376000  -10837.228      47.062972     -10790.165      376            47229.885      0.0085991493 
    377000  -10838.348      43.722894     -10794.625      377            47348.562      0.0084262369 
    378000  -10835.605      43.965698     -10791.639      378            47467.238      0.0084263015 
    379000  -10837.521      44.147685     -10793.373      379            47588.303      0.0082600155 
    380000  -10837.875      44.210714     -10793.664      380            47706.334      0.0084723421 
    381000  -10836.575      44.008454     -10792.566      381            47825.609      0.0083839957 
    382000  -10836.672      44.761552     -10791.91       382            47946.408      0.0082782007 
    383000  -10835.517      44.625011     -10790.892      383            48066.458      0.0083298549 
    384000  -10838.473      45.247609     -10793.225      384            48187.047      0.0082926522 
    385000  -10834.831      44.605773     -10790.225      385            48308.755      0.0082163725 
    386000  -10838.029      44.669872     -10793.36       386            48429.26       0.0082984368 
    387000  -10835.687      45.811183     -10789.876      387            48549.696      0.0083031225 
    388000  -10836.137      44.347398     -10791.79       388            48670.762      0.0082599692 
    389000  -10837.104      43.954159     -10793.15       389            48794.339      0.0080921212 
    390000  -10837.741      46.234283     -10791.506      390            48916.759      0.0081686362 
    391000  -10837.685      41.862929     -10795.822      391            49038.444      0.0082179322 
    392000  -10835.506      43.543033     -10791.963      392            49160.108      0.0082193618 
    393000  -10836.777      43.693314     -10793.083      393            49283.787      0.0080854374 
    394000  -10836.288      42.599931     -10793.688      394            49407.395      0.0080900614 
    395000  -10835.902      44.624389     -10791.278      395            49531.805      0.008037966  
    396000  -10835.159      45.551095     -10789.608      396            49659.479      0.0078324261 
    397000  -10838.364      44.795891     -10793.568      397            49786.476      0.0078741941 
    398000  -10837.085      44.645761     -10792.44       398            49915.45       0.0077535212 
    399000  -10836.788      45.477963     -10791.31       399            50045.459      0.0076917754 
    400000  -10837.534      45.201349     -10792.333      400            50176.805      0.0076134948 
    401000  -10836.505      46.015152     -10790.49       401            50308.278      0.0076060965 
    402000  -10838.981      45.056544     -10793.925      402            50438.366      0.0076870859 
    403000  -10835.804      44.690545     -10791.113      403            50568.845      0.0076640706 
    404000  -10839.201      44.063064     -10795.138      404            50701.097      0.0075613521 
    405000  -10836.869      45.38621      -10791.482      405            50834.815      0.0074783968 
    406000  -10838.141      44.838387     -10793.303      406            50969.139      0.007444695  
    407000  -10837.295      42.647233     -10794.648      407            51104.638      0.007380137  
    408000  -10837.778      47.307546     -10790.47       408            51241.11       0.0073275367 
    409000  -10836.73       42.843362     -10793.886      409            51376.551      0.0073832623 
    410000  -10839.093      45.528216     -10793.565      410            51511.528      0.0074086648 
    411000  -10837.683      45.876014     -10791.807      411            51649.844      0.0072298188 
    412000  -10838.127      44.367023     -10793.76       412            51786.495      0.007317931  
    413000  -10836.418      44.511784     -10791.906      413            51922.898      0.0073311915 
    414000  -10836.406      46.569053     -10789.837      414            52058.409      0.007379516  
    415000  -10837.9        44.529396     -10793.371      415            52196.082      0.00726355   
    416000  -10837.941      45.434308     -10792.507      416            52332.516      0.0073295838 
    417000  -10836.092      44.487964     -10791.604      417            52468.8        0.0073375889 
    418000  -10838.757      44.745948     -10794.011      418            52604.61       0.0073632364 
    419000  -10835.421      46.35149      -10789.069      419            52739.874      0.0073929515 
    420000  -10837.941      45.280276     -10792.661      420            52874.504      0.0074277904 
    421000  -10837.091      45.117228     -10791.974      421            53010.145      0.0073723854 
    422000  -10835.113      43.325241     -10791.788      422            53146.141      0.0073531361 
    423000  -10837.103      45.207212     -10791.896      423            53281.118      0.0074086708 
    424000  -10835.989      47.085757     -10788.903      424            53415.831      0.0074232149 
    425000  -10837.518      44.062563     -10793.455      425            53551.155      0.0073896489 
    426000  -10838.784      43.807275     -10794.976      426            53686.981      0.0073623768 
    427000  -10835.33       43.781671     -10791.548      427            53821.493      0.0074342736 
    428000  -10837.941      45.165231     -10792.776      428            53957.241      0.0073666042 
    429000  -10833.578      46.094772     -10787.483      429            54093.727      0.0073267431 
    430000  -10838.952      45.614389     -10793.338      430            54231.954      0.0072344675 
    431000  -10835.223      45.104159     -10790.119      431            54368.681      0.00731386   
    432000  -10836.86       44.243232     -10792.617      432            54503.833      0.007399102  
    433000  -10837.816      43.389297     -10794.427      433            54638.946      0.007401204  
    434000  -10836.224      44.802123     -10791.422      434            54774.465      0.0073790133 
    435000  -10838.595      45.171295     -10793.424      435            54910.554      0.0073481686 
    436000  -10836.44       45.346519     -10791.093      436            55047.474      0.007303489  
    437000  -10836.546      42.41894      -10794.127      437            55185.738      0.0072325735 
    438000  -10836.753      46.108849     -10790.645      438            55323.432      0.007262466  
    439000  -10838.228      44.356118     -10793.872      439            55461.933      0.0072201788 
    440000  -10837.866      45.531354     -10792.335      440            55599.877      0.0072492865 
    441000  -10838.994      43.759719     -10795.234      441            55737.125      0.0072861036 
    442000  -10837.577      46.376926     -10791.2        442            55874.749      0.0072661662 
    443000  -10839.025      44.100324     -10794.925      443            56012.346      0.0072676198 
    444000  -10838.66       45.991606     -10792.668      444            56149.181      0.0073080803 
    445000  -10836.592      44.255793     -10792.336      445            56284.345      0.0073983815 
    446000  -10838.185      46.639906     -10791.545      446            56418.793      0.0074378513 
    447000  -10836.688      45.418041     -10791.27       447            56553.238      0.0074379838 
    448000  -10838.557      43.931886     -10794.625      448            56688.704      0.007381912  
    449000  -10835.456      45.1452       -10790.311      449            56823.524      0.0074173032 
    450000  -10837.65       44.504311     -10793.145      450            56957.867      0.0074436376 
    451000  -10838.487      44.017335     -10794.47       451            57092.985      0.0074009297 
    452000  -10837.321      45.483011     -10791.838      452            57228.483      0.0073802062 
    453000  -10836.192      43.460824     -10792.732      453            57363.107      0.0074280628 
    454000  -10838.476      43.662555     -10794.813      454            57497.616      0.0074344438 
    455000  -10836.132      43.867939     -10792.264      455            57632.573      0.0074097946 
    456000  -10836.661      43.936082     -10792.725      456            57767.459      0.0074136626 
    457000  -10836.996      42.53059      -10794.465      457            57902.818      0.0073877716 
    458000  -10835.852      44.989281     -10790.862      458            58037.33       0.0074342453 
    459000  -10835.852      44.524956     -10791.327      459            58172.429      0.0074019872 
    460000  -10839.348      43.727564     -10795.62       460            58307.159      0.0074222477 
    461000  -10837.169      44.271918     -10792.897      461            58443.825      0.0073170946 
    462000  -10836.433      43.395969     -10793.037      462            58583.196      0.0071751298 
    463000  -10837.652      44.728722     -10792.923      463            58722.891      0.0071584556 
    464000  -10839.481      43.856697     -10795.624      464            58862.251      0.0071756457 
    465000  -10836.892      44.476033     -10792.416      465            59001.163      0.0071987853 
    466000  -10838.072      42.206192     -10795.866      466            59136.658      0.00738034   
    467000  -10835.319      43.454602     -10791.865      467            59271.206      0.0074323068 
    468000  -10836.588      45.925311     -10790.663      468            59404.762      0.0074874835 
    469000  -10837.226      44.057043     -10793.169      469            59538.038      0.0075032389 
    470000  -10837.343      45.851372     -10791.491      470            59671.807      0.0074755746 
    471000  -10839.443      44.69223      -10794.75       471            59805.15       0.0074994815 
    472000  -10836.393      44.675961     -10791.717      472            59937.674      0.0075457774 
    473000  -10838.797      41.717        -10797.08       473            60070.95       0.0075032298 
    474000  -10837.693      46.528492     -10791.165      474            60205.415      0.0074369091 
    475000  -10838.981      44.241237     -10794.74       475            60338.768      0.0074988569 
    476000  -10837.094      43.89185      -10793.202      476            60471.706      0.0075222951 
    477000  -10837.798      44.48581      -10793.312      477            60605.333      0.0074835551 
    478000  -10836.309      43.287282     -10793.022      478            60739.314      0.0074637174 
    479000  -10837.878      44.916836     -10792.961      479            60873.44       0.0074556963 
    480000  -10837.297      46.270471     -10791.027      480            61006.543      0.0075129659 
    481000  -10840.786      45.183928     -10795.602      481            61140.21       0.0074812972 
    482000  -10838.771      44.799581     -10793.971      482            61273.988      0.0074750608 
    483000  -10839.547      43.329814     -10796.217      483            61407.22       0.0075057192 
    484000  -10838.972      45.083013     -10793.889      484            61540.67       0.0074933961 
    485000  -10838.521      46.006077     -10792.515      485            61673.746      0.0075145167 
    486000  -10837.24       44.013231     -10793.227      486            61806.766      0.0075176595 
    487000  -10837.532      44.184789     -10793.347      487            61939.105      0.0075563881 
    488000  -10837.299      44.350081     -10792.949      488            62073.127      0.0074614687 
    489000  -10839.476      43.244178     -10796.232      489            62206.432      0.0075015594 
    490000  -10837.689      44.214282     -10793.475      490            62339.228      0.0075303546 
    491000  -10834.992      45.630493     -10789.361      491            62472.465      0.0075054394 
    492000  -10838.315      44.325625     -10793.99       492            62605.346      0.0075255361 
    493000  -10837.061      44.326899     -10792.734      493            62737.708      0.0075550294 
    494000  -10838.397      41.855984     -10796.541      494            62868.938      0.0076202146 
    495000  -10837.31       44.90247      -10792.408      495            63000.974      0.0075736695 
    496000  -10837.14       44.497021     -10792.643      496            63133.018      0.0075732427 
    497000  -10838.267      45.02145      -10793.246      497            63265.862      0.0075276093 
    498000  -10835.975      46.472326     -10789.503      498            63399.543      0.0074804849 
    499000  -10836.822      43.251269     -10793.571      499            63531.628      0.0075708939 
    500000  -10836.763      46.388356     -10790.375      500            63664.71       0.0075141937 
    501000  -10836.156      43.126561     -10793.029      501            63798.436      0.0074779377 
    502000  -10838.874      42.809336     -10796.065      502            63932.378      0.0074659348 
    503000  -10836.943      44.11579      -10792.827      503            64066.725      0.0074434288 
    504000  -10837.272      44.274168     -10792.998      504            64202.008      0.0073919046 
    505000  -10838.005      44.15893      -10793.846      505            64336.368      0.0074426673 
    506000  -10836.09       44.97826      -10791.112      506            64470.915      0.0074323492 
    507000  -10837.235      44.104664     -10793.13       507            64605.083      0.0074533383 
    508000  -10836.782      44.140913     -10792.641      508            64739.083      0.0074627239 
    509000  -10837.414      43.466989     -10793.947      509            64872.472      0.0074968564 
    510000  -10836.543      45.860521     -10790.683      510            65006.539      0.0074589449 
    511000  -10837.561      44.359542     -10793.201      511            65140.72       0.0074526402 
    512000  -10836.512      46.418449     -10790.094      512            65273.816      0.0075133828 
    513000  -10837.955      44.570218     -10793.385      513            65406.603      0.0075308187 
    514000  -10838.088      43.113943     -10794.974      514            65540.359      0.0074762917 
    515000  -10836.931      45.322474     -10791.608      515            65674.223      0.0074703213 
    516000  -10837.564      43.683606     -10793.881      516            65806.677      0.0075497608 
    517000  -10836.83       46.577813     -10790.252      517            65936.087      0.0077273851 
    518000  -10836.913      43.564893     -10793.348      518            66066.144      0.0076889067 
    519000  -10837.305      45.879722     -10791.426      519            66195.11       0.0077540147 
    520000  -10836.85       44.486826     -10792.363      520            66324.058      0.0077550374 
    521000  -10837.102      44.355989     -10792.746      521            66450.311      0.0079206071 
    522000  -10836.328      43.940575     -10792.388      522            66576.366      0.0079330884 
    523000  -10837.42       45.599091     -10791.821      523            66702.475      0.0079296505 
    524000  -10837.4        44.006902     -10793.393      524            66827.066      0.0080262623 
    525000  -10836.081      44.80378      -10791.277      525            66951.259      0.0080519323 
    526000  -10837.189      43.928128     -10793.26       526            67077.358      0.0079303243 
    527000  -10835.761      45.630588     -10790.13       527            67201.312      0.008067482  
    528000  -10839.433      46.344643     -10793.088      528            67324.249      0.0081342283 
    529000  -10835.681      45.968151     -10789.713      529            67448.006      0.0080803659 
    530000  -10835.676      44.237526     -10791.439      530            67572.005      0.0080646011 
    531000  -10837.055      45.612777     -10791.443      531            67695.13       0.0081218203 
    532000  -10837.678      44.740824     -10792.937      532            67818.449      0.0081090637 
    533000  -10836.014      44.789184     -10791.224      533            67943.281      0.0080107323 
    534000  -10838.799      42.027055     -10796.772      534            68069.081      0.0079491386 
    535000  -10837.478      46.170123     -10791.307      535            68195.307      0.0079222833 
    536000  -10838.777      45.499703     -10793.278      536            68321.761      0.0079080571 
    537000  -10836.147      45.477164     -10790.67       537            68449.261      0.0078430801 
    538000  -10839.546      44.829117     -10794.716      538            68577.076      0.0078238424 
    539000  -10836.598      45.722271     -10790.875      539            68704.877      0.0078246621 
    540000  -10839.525      45.37218      -10794.152      540            68831.818      0.0078776865 
    541000  -10838.112      42.909352     -10795.203      541            68959.785      0.0078145119 
    542000  -10839.113      45.572775     -10793.541      542            69087.256      0.0078449318 
    543000  -10837.534      43.187696     -10794.347      543            69214.456      0.0078616158 
    544000  -10836.198      46.204874     -10789.994      544            69342.983      0.0077804501 
    545000  -10837.728      43.668452     -10794.06       545            69471.432      0.0077851824 
    546000  -10835.914      44.935133     -10790.978      546            69599.866      0.0077861381 
    547000  -10837.829      44.893484     -10792.935      547            69728.405      0.0077797096 
    548000  -10837.094      44.017385     -10793.077      548            69857.434      0.0077502118 
    549000  -10837.092      45.383248     -10791.709      549            69986.302      0.0077598703 
    550000  -10838.328      44.627337     -10793.701      550            70114.611      0.0077936693 
    551000  -10837.724      43.542622     -10794.181      551            70242.929      0.0077931375 
    552000  -10837.152      45.544378     -10791.607      552            70371.901      0.0077536193 
    553000  -10839.431      44.791411     -10794.639      553            70501.089      0.0077407038 
    554000  -10837.396      44.80868      -10792.588      554            70630.478      0.0077286    
    555000  -10840.636      44.37334      -10796.263      555            70759.385      0.0077575238 
    556000  -10837.455      44.921191     -10792.534      556            70888.826      0.0077255545 
    557000  -10837.612      45.157485     -10792.454      557            71018.088      0.0077362161 
    558000  -10839.525      45.14614      -10794.379      558            71147.261      0.0077415265 
    559000  -10836.97       47.33785      -10789.632      559            71275.78       0.0077809714 
    560000  -10839.476      45.440767     -10794.035      560            71405.072      0.0077344184 
    561000  -10838.497      45.6775       -10792.819      561            71533.858      0.0077648358 
    562000  -10839.828      44.286972     -10795.541      562            71662.816      0.0077544471 
    563000  -10837.327      44.905497     -10792.422      563            71791.938      0.0077446317 
    564000  -10836.149      45.12115      -10791.028      564            71920.914      0.0077534057 
    565000  -10837.713      43.24044      -10794.473      565            72048.919      0.0078121624 
    566000  -10836.175      43.627818     -10792.547      566            72176.981      0.0078087431 
    567000  -10835.688      44.196098     -10791.491      567            72305.32       0.0077918283 
    568000  -10838.398      43.930806     -10794.468      568            72433.145      0.0078232155 
    569000  -10838.84       43.50889      -10795.331      569            72560.53       0.0078502209 
    570000  -10836.807      44.509066     -10792.298      570            72687.514      0.0078750169 
    571000  -10837.978      41.07969      -10796.898      571            72815.192      0.0078321872 
    572000  -10836.545      44.657414     -10791.887      572            72941.71       0.0079040145 
    573000  -10837.009      42.955025     -10794.054      573            73067.229      0.007966948  
    574000  -10837.065      46.460007     -10790.605      574            73191.058      0.0080756567 
    575000  -10838.819      46.029622     -10792.789      575            73314.625      0.008092769  
    576000  -10836.853      42.167352     -10794.685      576            73438.73       0.0080576791 
    577000  -10836.917      45.120801     -10791.796      577            73562.952      0.0080500846 
    578000  -10836.837      42.325054     -10794.512      578            73686.414      0.0080996499 
    579000  -10836.83       46.142052     -10790.688      579            73808.413      0.008196819  
    580000  -10837.3        44.825399     -10792.474      580            73930.669      0.0081795543 
    581000  -10837.654      44.11431      -10793.539      581            74054.522      0.0080740502 
    582000  -10836.892      45.21667      -10791.675      582            74180.767      0.0079211428 
    583000  -10835.328      42.933677     -10792.395      583            74304.949      0.0080526616 
    584000  -10836.897      45.237157     -10791.66       584            74427.904      0.0081330787 
    585000  -10837.511      43.616885     -10793.894      585            74553.07       0.0079893723 
    586000  -10838.207      45.926219     -10792.281      586            74680.98       0.0078179905 
    587000  -10836.627      45.248364     -10791.379      587            74808.383      0.0078491666 
    588000  -10838.398      43.17594      -10795.222      588            74934.925      0.0079024807 
    589000  -10836.685      44.395248     -10792.289      589            75062.143      0.0078605443 
    590000  -10837.803      45.302515     -10792.5        590            75188.517      0.0079129877 
    591000  -10839.443      44.397241     -10795.045      591            75315.732      0.0078607199 
    592000  -10835.947      43.292018     -10792.655      592            75442.559      0.0078847655 
    593000  -10836.788      45.688961     -10791.099      593            75569.277      0.0078915182 
    594000  -10836.42       43.038007     -10793.382      594            75696.994      0.0078298058 
    595000  -10838.349      45.730042     -10792.619      595            75827.027      0.0076903693 
    596000  -10837.026      46.069208     -10790.957      596            75957.533      0.0076624719 
    597000  -10838.515      44.293573     -10794.221      597            76089.666      0.0075681435 
    598000  -10835.691      43.527778     -10792.163      598            76223.059      0.0074966641 
    599000  -10838.129      44.989645     -10793.139      599            76356.937      0.0074694972 
    600000  -10837.79       46.100239     -10791.689      600            76490.72       0.0074747857 
    601000  -10838.528      43.724244     -10794.804      601            76624.966      0.0074489928 
    602000  -10836.959      45.033387     -10791.925      602            76759.635      0.0074256127 
    603000  -10837.542      45.343686     -10792.198      603            76894.129      0.0074352502 
    604000  -10834.743      43.857962     -10790.885      604            77028.992      0.0074149413 
    605000  -10837.578      45.076418     -10792.502      605            77163.792      0.0074184403 
    606000  -10837.689      46.013908     -10791.675      606            77298.4        0.0074289313 
    607000  -10838.663      43.493286     -10795.17       607            77433.258      0.0074152036 
    608000  -10837.736      45.174307     -10792.561      608            77567.948      0.0074244924 
    609000  -10837.112      45.179861     -10791.932      609            77703.072      0.0074006248 
    610000  -10836.931      45.923717     -10791.007      610            77837.946      0.0074143054 
    611000  -10838.844      45.99812      -10792.846      611            77973.209      0.0073930205 
    612000  -10836.35       43.992539     -10792.357      612            78107.94       0.0074221555 
    613000  -10837.495      44.008127     -10793.487      613            78242.139      0.0074516597 
    614000  -10835.834      46.18037      -10789.654      614            78375.732      0.0074853898 
    615000  -10836.414      44.915436     -10791.498      615            78508.788      0.0075156214 
    616000  -10838.777      43.993284     -10794.784      616            78641.53       0.0075334458 
    617000  -10836.51       44.648449     -10791.862      617            78774.397      0.0075262993 
    618000  -10837.246      44.357329     -10792.889      618            78907.853      0.0074931445 
    619000  -10835.175      45.239774     -10789.935      619            79040.983      0.007511425  
    620000  -10838.244      45.814484     -10792.43       620            79174.221      0.0075053969 
    621000  -10835.433      44.074293     -10791.359      621            79307.741      0.0074894767 
    622000  -10837.204      44.384914     -10792.819      622            79441.059      0.0075008744 
    623000  -10837.331      45.458313     -10791.873      623            79573.57       0.0075465691 
    624000  -10837.741      46.817654     -10790.924      624            79706.543      0.0075203078 
    625000  -10840.171      43.308497     -10796.863      625            79839.835      0.0075023447 
    626000  -10837.018      44.947926     -10792.07       626            79973.022      0.0075082075 
    627000  -10839.108      43.838127     -10795.27       627            80104.579      0.0076012508 
    628000  -10838.025      46.821045     -10791.204      628            80235.186      0.0076565836 
    629000  -10837.143      43.818126     -10793.325      629            80367.058      0.0075831312 
    630000  -10835.584      43.015154     -10792.568      630            80501.389      0.0074442937 
    631000  -10836.413      43.527817     -10792.885      631            80635.872      0.0074358856 
    632000  -10836.855      44.616078     -10792.239      632            80767.014      0.0076253064 
    633000  -10837.907      45.343046     -10792.564      633            80898.754      0.0075907254 
    634000  -10839.055      45.159035     -10793.896      634            81034.109      0.0073879451 
    635000  -10836.067      45.247872     -10790.819      635            81168.338      0.0074499757 
    636000  -10837.625      43.283198     -10794.342      636            81302.2        0.0074703675 
    637000  -10837.408      45.135769     -10792.273      637            81437.178      0.0074085976 
    638000  -10837.422      43.673288     -10793.748      638            81570.091      0.0075237644 
    639000  -10839.398      45.697325     -10793.701      639            81704.331      0.0074493162 
    640000  -10837.116      44.45645      -10792.659      640            81839.076      0.0074214371 
    641000  -10838.723      43.706526     -10795.017      641            81974.44       0.0073874791 
    642000  -10835.862      45.49848      -10790.363      642            82109.982      0.0073777779 
    643000  -10836.864      43.917727     -10792.946      643            82245.329      0.0073884495 
    644000  -10835.847      43.492269     -10792.354      644            82381.586      0.0073390542 
    645000  -10837.325      43.712441     -10793.613      645            82517.13       0.0073776862 
    646000  -10835.701      45.888349     -10789.812      646            82653.208      0.0073487386 
    647000  -10836.265      44.79652      -10791.469      647            82790.097      0.0073051815 
    648000  -10835.819      43.255681     -10792.563      648            82927.221      0.0072926604 
    649000  -10835.496      44.1286       -10791.367      649            83065.159      0.0072496223 
    650000  -10837.407      43.181205     -10794.225      650            83201.584      0.0073300417 
    651000  -10838.347      45.676708     -10792.67       651            83338.459      0.0073059275 
    652000  -10836.212      45.494422     -10790.718      652            83474.434      0.007354309  
    653000  -10838.727      43.885114     -10794.842      653            83609.904      0.0073816931 
    654000  -10835.174      46.498796     -10788.675      654            83744.27       0.0074423964 
    655000  -10837.134      43.843013     -10793.291      655            83877.818      0.0074879325 
    656000  -10835.92       46.214794     -10789.705      656            84011.743      0.0074668234 
    657000  -10837.311      44.951539     -10792.359      657            84146.372      0.0074278644 
    658000  -10837.525      41.877758     -10795.647      658            84281.675      0.0073908276 
    659000  -10838.293      46.65524      -10791.638      659            84416.19       0.0074340927 
    660000  -10837.782      43.930221     -10793.852      660            84550.496      0.0074456609 
    661000  -10837.09       44.432853     -10792.657      661            84685.506      0.0074068924 
    662000  -10838.411      45.374333     -10793.037      662            84821.951      0.0073289447 
    663000  -10837.197      45.982506     -10791.214      663            84957.892      0.0073561435 
    664000  -10838.472      44.547534     -10793.924      664            85091.245      0.0074988626 
    665000  -10836.308      43.852326     -10792.456      665            85224.156      0.0075238812 
    666000  -10837.955      43.224551     -10794.73       666            85356.3        0.0075674737 
    667000  -10836.337      44.830798     -10791.506      667            85489.948      0.0074823462 
    668000  -10836.291      43.403466     -10792.887      668            85622.969      0.0075176036 
    669000  -10838.007      45.444734     -10792.562      669            85755.799      0.0075284098 
    670000  -10837.7        43.726478     -10793.974      670            85888.484      0.0075366497 
    671000  -10835.668      43.331978     -10792.336      671            86021.334      0.0075272869 
    672000  -10836.434      43.498503     -10792.935      672            86155.318      0.0074635632 
    673000  -10836.555      45.77629      -10790.779      673            86288.716      0.0074963949 
    674000  -10838.521      44.642018     -10793.879      674            86422.058      0.0074994791 
    675000  -10836.12       46.721788     -10789.398      675            86554.849      0.0075306765 
    676000  -10838.687      44.995367     -10793.692      676            86688.846      0.0074628196 
    677000  -10836.242      44.898424     -10791.344      677            86821.358      0.0075464792 
    678000  -10834.441      44.938041     -10789.503      678            86954.563      0.0075072373 
    679000  -10838.891      45.855949     -10793.035      679            87086.077      0.0076037379 
    680000  -10837.234      45.143258     -10792.091      680            87218.326      0.0075615011 
    681000  -10839.12       43.233077     -10795.887      681            87350.668      0.0075562233 
    682000  -10837.027      45.638679     -10791.388      682            87482.792      0.0075686393 
    683000  -10838.749      43.344854     -10795.404      683            87614.53       0.0075908098 
    684000  -10837.391      44.567819     -10792.823      684            87746.278      0.0075902473 
    685000  -10836.849      43.382738     -10793.466      685            87877.97       0.0075934903 
    686000  -10837.491      43.781076     -10793.709      686            88008.028      0.0076888451 
    687000  -10838.037      45.737001     -10792.3        687            88137.926      0.0076983848 
    688000  -10839.776      42.802308     -10796.973      688            88268.02       0.0076867487 
    689000  -10837.023      45.920878     -10791.102      689            88398.059      0.0076900106 
    690000  -10837.7        44.742494     -10792.958      690            88528.788      0.007649365  
    691000  -10836.801      44.032208     -10792.769      691            88659.469      0.0076522341 
    692000  -10836.84       43.185956     -10793.654      692            88790.42       0.0076364494 
    693000  -10836.749      43.78146      -10792.967      693            88921.293      0.0076410124 
    694000  -10837.653      42.657018     -10794.996      694            89052.698      0.0076100175 
    695000  -10836.962      45.38295      -10791.579      695            89185.373      0.0075372178 
    696000  -10835.972      44.690902     -10791.281      696            89317.824      0.0075499722 
    697000  -10837.914      42.604584     -10795.309      697            89450.224      0.0075528867 
    698000  -10838.133      45.900891     -10792.232      698            89583.113      0.0075250724 
    699000  -10837.911      44.593029     -10793.318      699            89716.664      0.0074877595 
    700000  -10837.63       43.751929     -10793.878      700            89849.846      0.0075085362 
    701000  -10835.675      45.224339     -10790.451      701            89982.233      0.0075536014 
    702000  -10837.744      44.231661     -10793.513      702            90114.992      0.0075324442 
    703000  -10840.649      45.244983     -10795.404      703            90249.033      0.0074604079 
    704000  -10837.688      45.667381     -10792.021      704            90382.132      0.0075131914 
    705000  -10838.371      44.008434     -10794.363      705            90515.586      0.0074932399 
    706000  -10836.808      45.245026     -10791.563      706            90648.993      0.0074958445 
    707000  -10836.617      42.699923     -10793.917      707            90782.901      0.0074678132 
    708000  -10836.233      45.279603     -10790.954      708            90917.418      0.0074340479 
    709000  -10837.6        44.494486     -10793.106      709            91051.255      0.0074717249 
    710000  -10836.095      44.308415     -10791.787      710            91185.194      0.0074661303 
    711000  -10837.015      44.001367     -10793.014      711            91319.065      0.0074698416 
    712000  -10837.502      45.810887     -10791.691      712            91453.799      0.0074220233 
    713000  -10838.177      43.828766     -10794.348      713            91588.152      0.0074431065 
    714000  -10835.954      45.065753     -10790.888      714            91721.852      0.0074794508 
    715000  -10838.063      45.544121     -10792.519      715            91857.212      0.0073876623 
    716000  -10838.482      43.701828     -10794.78       716            91991.288      0.0074584567 
    717000  -10837.317      44.755538     -10792.561      717            92129.19       0.0072515382 
    718000  -10838.848      43.586934     -10795.261      718            92267.436      0.0072334851 
    719000  -10838.055      46.744081     -10791.311      719            92404.287      0.0073072473 
    720000  -10837.865      43.680862     -10794.185      720            92540.596      0.0073362639 
    721000  -10835.517      44.314268     -10791.203      721            92677.809      0.007287948  
    722000  -10838.282      44.479222     -10793.803      722            92812.942      0.0074000684 
    723000  -10838.867      46.708209     -10792.159      723            92948.533      0.0073751576 
    724000  -10838.386      44.034041     -10794.352      724            93083.778      0.0073939803 
    725000  -10836.621      44.793481     -10791.828      725            93218.792      0.0074066146 
    726000  -10838.52       45.400494     -10793.12       726            93353.99       0.0073966067 
    727000  -10838.127      44.404501     -10793.723      727            93488.333      0.0074435817 
    728000  -10837.803      45.47712      -10792.326      728            93623.07       0.0074219006 
    729000  -10838.284      43.897665     -10794.386      729            93758.324      0.0073934669 
    730000  -10836.452      45.096239     -10791.355      730            93893.642      0.0073900168 
    731000  -10839.015      44.842224     -10794.173      731            94031.056      0.0072772803 
    732000  -10837.071      44.258424     -10792.812      732            94169.098      0.0072441495 
    733000  -10838.674      43.396602     -10795.277      733            94307.013      0.0072508524 
    734000  -10838.769      46.795739     -10791.973      734            94446.055      0.0071920855 
    735000  -10838.174      44.638813     -10793.535      735            94584.203      0.0072386007 
    736000  -10836.178      45.146907     -10791.031      736            94722.367      0.007237788  
    737000  -10837.338      44.768475     -10792.57       737            94859.969      0.0072673623 
    738000  -10838.818      44.118904     -10794.699      738            94997.656      0.0072628053 
    739000  -10838.675      45.21029      -10793.465      739            95134.372      0.0073144298 
    740000  -10838.318      45.201795     -10793.116      740            95270.176      0.0073635806 
    741000  -10839.073      45.079611     -10793.993      741            95405.767      0.007375107  
    742000  -10837.457      43.573691     -10793.883      742            95540.753      0.007408204  
    743000  -10838.351      47.138551     -10791.212      743            95675          0.0074489466 
    744000  -10838.582      44.967532     -10793.614      744            95808.33       0.0075001827 
    745000  -10837.259      45.347314     -10791.912      745            95941.647      0.0075009047 
    746000  -10836.777      46.203778     -10790.573      746            96074.501      0.0075270766 
    747000  -10838.451      45.072481     -10793.379      747            96207.367      0.0075263561 
[...]
   4888000  -10838.399      45.138247     -10793.26       4888           652397.08      0.007545762  
   4889000  -10839.562      43.45774      -10796.104      4889           652529.74      0.0075380734 
   4890000  -10839.151      44.764711     -10794.386      4890           652660.97      0.0076201111 
   4891000  -10836.97       46.221156     -10790.748      4891           652791.64      0.0076526563 
   4892000  -10839.252      45.276004     -10793.976      4892           652922.61      0.0076357322 
   4893000  -10838.764      43.255435     -10795.509      4893           653052.96      0.0076716084 
   4894000  -10840.542      45.36617      -10795.176      4894           653184.83      0.0075831914 
   4895000  -10838.895      43.42414      -10795.471      4895           653321.03      0.0073420753 
   4896000  -10839.878      44.863605     -10795.015      4896           653459.28      0.0072330829 
   4897000  -10840.604      43.526639     -10797.078      4897           653596.75      0.0072745207 
   4898000  -10837.981      44.309687     -10793.672      4898           653734.21      0.0072745595 
   4899000  -10840.004      41.881134     -10798.123      4899           653872.21      0.0072467363 
   4900000  -10839.712      44.642589     -10795.069      4900           654012.92      0.0071067663 
   4901000  -10840.695      45.68637      -10795.009      4901           654154.39      0.0070685843 
   4902000  -10840.737      44.496231     -10796.24       4902           654294.29      0.0071480186 
   4903000  -10839.635      44.418836     -10795.216      4903           654431.06      0.0073113633 
   4904000  -10839.356      43.374177     -10795.982      4904           654567.05      0.007353569  
   4905000  -10840.6        44.356651     -10796.244      4905           654700.31      0.0075039626 
   4906000  -10838.938      44.309448     -10794.629      4906           654831.13      0.0076444046 
   4907000  -10840.97       44.973407     -10795.996      4907           654967.93      0.0073096086 
   4908000  -10840.575      44.644976     -10795.93       4908           655106.12      0.0072368209 
   4909000  -10839.737      42.199491     -10797.538      4909           655245.75      0.0071618085 
   4910000  -10840.217      45.049129     -10795.168      4910           655386.87      0.0070858727 
   4911000  -10840.805      43.902058     -10796.903      4911           655528.2       0.0070755494 
   4912000  -10840.021      44.994081     -10795.027      4912           655669.35      0.0070846254 
   4913000  -10840.685      45.813487     -10794.872      4913           655810.4       0.0070899364 
   4914000  -10838.3        46.391555     -10791.908      4914           655952.06      0.0070592572 
   4915000  -10839.019      43.461734     -10795.557      4915           656093.52      0.0070691042 
   4916000  -10838.638      46.594228     -10792.044      4916           656234.81      0.0070774605 
   4917000  -10838.872      43.382413     -10795.49       4917           656376.27      0.0070693193 
   4918000  -10838.238      44.029104     -10794.209      4918           656517.94      0.0070587703 
   4919000  -10838.048      46.242297     -10791.806      4919           656659.37      0.0070701534 
   4920000  -10838.211      43.264348     -10794.947      4920           656800.26      0.0070977939 
   4921000  -10839.817      44.517162     -10795.3        4921           656936.78      0.0073253495 
   4922000  -10840.202      43.503483     -10796.698      4922           657073.01      0.0073404366 
   4923000  -10838.704      44.399995     -10794.304      4923           657211.66      0.0072125099 
   4924000  -10839.811      43.714464     -10796.096      4924           657347.81      0.0073443415 
   4925000  -10839.865      45.517861     -10794.347      4925           657483.66      0.0073610605 
   4926000  -10839.256      44.137848     -10795.118      4926           657618.45      0.0074193473 
   4927000  -10837.732      45.121629     -10792.61       4927           657749.73      0.0076170133 
   4928000  -10837.737      44.255517     -10793.481      4928           657881.36      0.007597144  
   4929000  -10838.448      43.198204     -10795.249      4929           658011.35      0.007692987  
   4930000  -10838.71       45.413128     -10793.297      4930           658141.27      0.007696971  
   4931000  -10838.277      42.851517     -10795.426      4931           658273.09      0.0075859717 
   4932000  -10837.983      44.390926     -10793.592      4932           658407.18      0.0074578343 
   4933000  -10839.81       44.572465     -10795.238      4933           658542.28      0.0074020174 
   4934000  -10838.298      46.980516     -10791.317      4934           658678.54      0.0073390349 
   4935000  -10840.441      45.08793      -10795.353      4935           658815.1       0.0073223585 
   4936000  -10839.752      42.209091     -10797.543      4936           658951.69      0.0073214717 
   4937000  -10839.937      46.280632     -10793.657      4937           659088.39      0.0073151008 
   4938000  -10839.448      43.934142     -10795.514      4938           659224.52      0.0073459283 
   4939000  -10838.732      45.017396     -10793.715      4939           659361.15      0.0073192042 
   4940000  -10841.413      44.053139     -10797.36       4940           659497.65      0.0073259609 
   4941000  -10839.186      44.941082     -10794.245      4941           659634.97      0.0072824818 
   4942000  -10840          43.62703      -10796.373      4942           659772.53      0.0072693341 
   4943000  -10842.384      45.86771      -10796.516      4943           659910.06      0.0072712609 
   4944000  -10840.348      47.670056     -10792.678      4944           660046.69      0.0073188603 
   4945000  -10839.885      43.804134     -10796.081      4945           660182.41      0.0073682225 
   4946000  -10838.7        47.353058     -10791.347      4946           660320.54      0.0072394676 
   4947000  -10840.043      44.578059     -10795.465      4947           660458.09      0.0072702564 
   4948000  -10840.609      43.809989     -10796.799      4948           660594.47      0.0073321363 
   4949000  -10838.837      45.161726     -10793.676      4949           660730.74      0.007338561  
   4950000  -10841.093      44.182405     -10796.91       4950           660864.17      0.0074943321 
   4951000  -10839.472      43.502299     -10795.97       4951           660997.11      0.0075224719 
   4952000  -10840.431      45.133192     -10795.297      4952           661132.31      0.0073962833 
   4953000  -10839.529      45.692084     -10793.837      4953           661267.56      0.0073939274 
   4954000  -10839.912      44.194488     -10795.717      4954           661401.35      0.0074744186 
   4955000  -10837.292      44.926572     -10792.365      4955           661530.53      0.0077407681 
   4956000  -10838.75       43.577087     -10795.173      4956           661658.36      0.0078232706 
   4957000  -10838.552      45.776702     -10792.776      4957           661787.16      0.0077640797 
   4958000  -10839.972      43.148544     -10796.823      4958           661917.56      0.0076685771 
   4959000  -10838.691      44.121394     -10794.57       4959           662052.63      0.0074035906 
   4960000  -10839.111      42.056898     -10797.054      4960           662190.77      0.0072391237 
   4961000  -10838.795      45.642524     -10793.152      4961           662330.16      0.007173858  
   4962000  -10840.398      44.857069     -10795.541      4962           662470.32      0.0071350216 
   4963000  -10839.313      45.442632     -10793.871      4963           662610.88      0.0071141112 
   4964000  -10840.771      46.181396     -10794.589      4964           662753.25      0.0070240032 
   4965000  -10838.777      46.587835     -10792.189      4965           662895.16      0.0070467397 
   4966000  -10839.702      42.985159     -10796.717      4966           663037.21      0.0070396556 
   4967000  -10839.077      45.119272     -10793.958      4967           663179.03      0.0070515004 
   4968000  -10840.41       43.882273     -10796.528      4968           663318.76      0.007156331  
   4969000  -10838.773      45.84388      -10792.929      4969           663457.74      0.0071954424 
   4970000  -10840.006      45.189553     -10794.817      4970           663596.15      0.0072246105 
   4971000  -10839.662      47.197191     -10792.464      4971           663734.76      0.0072148239 
   4972000  -10839.084      46.420231     -10792.663      4972           663873.5       0.0072076234 
   4973000  -10839.209      43.093538     -10796.116      4973           664012.12      0.0072138602 
   4974000  -10839.346      46.271091     -10793.075      4974           664150.64      0.0072194484 
   4975000  -10839.051      44.071688     -10794.98       4975           664288.85      0.0072350959 
   4976000  -10839.581      44.61258      -10794.969      4976           664427.92      0.0071906379 
   4977000  -10838.885      44.527465     -10794.357      4977           664567.58      0.0071604204 
   4978000  -10842.246      43.421643     -10798.825      4978           664707.48      0.0071479951 
   4979000  -10839.263      45.349174     -10793.914      4979           664847.49      0.0071422534 
   4980000  -10837.327      44.768768     -10792.558      4980           664986.87      0.0071747317 
   4981000  -10838.472      45.804332     -10792.668      4981           665125.72      0.0072020552 
   4982000  -10837.653      44.180552     -10793.472      4982           665263.78      0.0072429321 
   4983000  -10841.18       43.814921     -10797.365      4983           665401.29      0.0072724324 
   4984000  -10835.842      43.360144     -10792.481      4984           665537.72      0.0073295442 
   4985000  -10839.008      43.47358      -10795.535      4985           665674.27      0.0073236623 
   4986000  -10838.955      44.552124     -10794.403      4986           665807.67      0.0074960118 
   4987000  -10838.285      44.391083     -10793.894      4987           665937.41      0.0077076693 
   4988000  -10840.499      43.820316     -10796.679      4988           666068.65      0.0076194487 
   4989000  -10839.135      46.286055     -10792.849      4989           666201.99      0.0074999836 
   4990000  -10840.654      43.720643     -10796.933      4990           666335.79      0.0074738613 
   4991000  -10837.757      45.303782     -10792.453      4991           666474.03      0.0072335171 
   4992000  -10839.446      44.624855     -10794.822      4992           666612.44      0.0072248545 
   4993000  -10839.9        44.111755     -10795.789      4993           666752.13      0.0071587288 
   4994000  -10839.712      45.663592     -10794.049      4994           666892.08      0.0071457145 
   4995000  -10841.003      45.333666     -10795.669      4995           667031.82      0.0071558346 
   4996000  -10838.628      46.781569     -10791.847      4996           667171.53      0.0071577082 
   4997000  -10842.038      45.652611     -10796.385      4997           667311.33      0.0071534714 
   4998000  -10840.517      43.223751     -10797.294      4998           667451.7       0.0071236004 
   4999000  -10840.082      45.376857     -10794.706      4999           667591.06      0.0071756975 
   5000000  -10838.071      45.60603      -10792.465      5000           667731.11      0.007140381  
Loop time of 667731 on 16 procs for 5000000 steps with 1152 atoms

Performance: 0.647 ns/day, 37.096 hours/ns, 7.488 timesteps/s, 8.626 katom-step/s
99.2% CPU use with 16 MPI tasks x 1 OpenMP threads

MPI task timing breakdown:
Section |  min time  |  avg time  |  max time  |%varavg| %total
---------------------------------------------------------------
Pair    | 1.4976e+05 | 1.6342e+05 | 1.812e+05  |2033.1 | 24.47
Neigh   | 1630.6     | 1789.5     | 1939.5     | 218.4 |  0.27
Comm    | 21557      | 30900      | 36323      |2167.1 |  4.63
Output  | 0.89001    | 0.96007    | 1.9852     |  27.0 |  0.00
Modify  | 4.6036e+05 | 4.7158e+05 | 4.8166e+05 |1078.4 | 70.62
Other   |            | 46.78      |            |       |  0.01

Nlocal:             72 ave          90 max          49 min
Histogram: 1 0 0 0 4 8 1 0 0 2
Nghost:         814.75 ave         898 max         720 min
Histogram: 3 1 0 3 2 1 0 0 2 4
Neighs:              0 ave           0 max           0 min
Histogram: 16 0 0 0 0 0 0 0 0 0
FullNghs:         5635 ave        8103 max        3360 min
Histogram: 1 0 1 6 3 1 2 0 0 2

Total # of neighbors = 90160
Ave neighs/atom = 78.263889
Neighbor list builds = 10000000
Dangerous builds = 0

unfix temp

min_style cg
fix 0 all box/relax aniso 0 vmax 0.001
minimize 0 0 100000 100000
Per MPI rank memory allocation (min/avg/max) = 5.534 | 5.54 | 5.544 Mbytes
   Step         PotEng         KinEng         TotEng          Time           CPU           T/CPU     
   5000000  -10838.071      45.60603      -10792.465      5000           0              0            
   5001000  -10885.815      45.60603      -10840.209      5001           78.561033      0.012728957  
   5002000  -10885.822      45.60603      -10840.216      5002           175.95523      0.010267552  
   5003000  -10885.822      45.60603      -10840.216      5003           273.32459      0.010270171  
   5004000  -10885.822      45.60603      -10840.216      5004           371.02284      0.010235598  
   5005000  -10885.822      45.60603      -10840.216      5005           468.39905      0.010269448  
   5006000  -10885.822      45.60603      -10840.216      5006           565.83112      0.010263561  
   5007000  -10885.822      45.60603      -10840.216      5007           662.98602      0.010292842  
   5008000  -10885.822      45.60603      -10840.216      5008           760.17083      0.010289674  
   5009000  -10885.822      45.60603      -10840.216      5009           857.77559      0.010245402  
   5010000  -10885.822      45.60603      -10840.216      5010           955.45515      0.010237556  
   5011000  -10885.822      45.60603      -10840.216      5011           1052.5988      0.010294034  
   5012000  -10885.822      45.60603      -10840.216      5012           1149.8948      0.010277911  
   5013000  -10885.822      45.60603      -10840.216      5013           1247.0314      0.010294785  
   5014000  -10885.822      45.60603      -10840.216      5014           1344.3886      0.01027145   
   5015000  -10885.822      45.60603      -10840.216      5015           1441.6325      0.010283425  
   5016000  -10885.822      45.60603      -10840.216      5016           1539.3744      0.010231031  
   5017000  -10885.822      45.60603      -10840.216      5017           1636.536       0.010292125  
   5018000  -10885.822      45.60603      -10840.216      5018           1733.6487      0.010297313  
   5019000  -10885.822      45.60603      -10840.216      5019           1830.7638      0.010297061  
   5020000  -10885.822      45.60603      -10840.216      5020           1927.2748      0.010361513  
   5021000  -10885.822      45.60603      -10840.216      5021           2023.7822      0.010361907  
   5022000  -10885.822      45.60603      -10840.216      5022           2120.8806      0.010298832  
   5023000  -10885.822      45.60603      -10840.216      5023           2217.5845      0.010340839  
   5024000  -10885.822      45.60603      -10840.216      5024           2314.3905      0.010329935  
   5025000  -10885.822      45.60603      -10840.216      5025           2411.1386      0.010336127  
   5026000  -10885.822      45.60603      -10840.216      5026           2508.0535      0.010318333  
   5027000  -10885.822      45.60603      -10840.216      5027           2605.0483      0.010309823  
   5028000  -10885.822      45.60603      -10840.216      5028           2702.1386      0.010299697  
   5029000  -10885.822      45.60603      -10840.216      5029           2798.803       0.010345061  
   5030000  -10885.822      45.60603      -10840.216      5030           2895.4948      0.010342148  
   5031000  -10885.822      45.60603      -10840.216      5031           2992.1796      0.010342879  
   5032000  -10885.822      45.60603      -10840.216      5032           3088.8601      0.010343353  
   5033000  -10885.822      45.60603      -10840.216      5033           3185.4671      0.010351219  
   5034000  -10885.822      45.60603      -10840.216      5034           3282.3127      0.010325714  
   5035000  -10885.822      45.60603      -10840.216      5035           3378.8835      0.010355089  
   5036000  -10885.822      45.60603      -10840.216      5036           3474.2137      0.010489857  
   5037000  -10885.822      45.60603      -10840.216      5037           3569.3557      0.010510603  
   5038000  -10885.822      45.60603      -10840.216      5038           3664.7129      0.010486893  
   5039000  -10885.822      45.60603      -10840.216      5039           3759.8549      0.010510606  
   5040000  -10885.822      45.60603      -10840.216      5040           3855.5264      0.010452433  
   5041000  -10885.822      45.60603      -10840.216      5041           3951.8406      0.010382678  
   5042000  -10885.822      45.60603      -10840.216      5042           4048.2552      0.010371875  
   5043000  -10885.822      45.60603      -10840.216      5043           4144.8606      0.010351388  
   5044000  -10885.822      45.60603      -10840.216      5044           4241.5785      0.010339351  
   5045000  -10885.822      45.60603      -10840.216      5045           4338.2559      0.01034368   
   5046000  -10885.822      45.60603      -10840.216      5046           4435.1244      0.010323268  
   5047000  -10885.822      45.60603      -10840.216      5047           4533.8292      0.010131222  
   5048000  -10885.822      45.60603      -10840.216      5048           4633.8796      0.0099949673 
   5049000  -10885.822      45.60603      -10840.216      5049           4733.97        0.0099909654 
   5050000  -10885.822      45.60603      -10840.216      5050           4834.7909      0.0099185747 
   5050180  -10885.822      45.60603      -10840.216      5050.18        4852.9424      0.0099165757 
Loop time of 4852.94 on 16 procs for 50180 steps with 1152 atoms

99.2% CPU use with 16 MPI tasks x 1 OpenMP threads

Minimization stats:
  Stopping criterion = max force evaluations
  Energy initial, next-to-last, final = 
     -10838.0706650733  -10885.8224475099  -10885.8224475099
  Force two-norm initial, final = 103.96597 2.3924873e-11
  Force max component initial, final = 71.039311 2.0769568e-11
  Final line search alpha, max atom move = 1 2.0769568e-11
  Iterations, force evaluations = 50180 100000

MPI task timing breakdown:
Section |  min time  |  avg time  |  max time  |%varavg| %total
---------------------------------------------------------------
Pair    | 2181.6     | 3449.8     | 4807.6     |1041.9 | 71.09
Neigh   | 0.0002158  | 0.00029867 | 0.00043091 |   0.0 |  0.00
Comm    | 28.802     | 611.79     | 1724.8     |2044.9 | 12.61
Output  | 0.0067014  | 0.0075551  | 0.019602   |   3.6 |  0.00
Modify  | 0          | 0          | 0          |   0.0 |  0.00
Other   |            | 791.3      |            |       | 16.31

Nlocal:             72 ave          90 max          49 min
Histogram: 1 0 0 0 4 8 1 0 0 2
Nghost:            815 ave         898 max         720 min
Histogram: 3 1 0 3 2 1 0 0 2 4
Neighs:              0 ave           0 max           0 min
Histogram: 16 0 0 0 0 0 0 0 0 0
FullNghs:      5641.25 ave        8126 max        3359 min
Histogram: 1 0 1 7 2 1 2 0 0 2

Total # of neighbors = 90260
Ave neighs/atom = 78.350694
Neighbor list builds = 1
Dangerous builds = 0

write_data data.CSRO
System init for write_data ...

print "all done"
all done
Total wall time: 186:49:44
