LAMMPS data file via write_data, version 22 Dec 2022, timestep = 5050128

1152 atoms
5 atom types

-0.05492817709029491 15.293595785302312 xlo xhi
0.058338373879349474 16.104709429139223 ylo yhi
0.18662918577459103 70.1977615797872 zlo zhi

Masses

1 180.948
2 92.9064
3 50.9415
4 95.94
5 183.84

Atoms # atomic

934 3 0.3186660610946886 0.3175207766294571 2.901372978614772 -15 -1 0
314 3 1.621244070894005 2.098196529632228 0.899521786797068 -15 -2 0
913 3 2.86946514684635 1.2145041356284036 2.8874330775688 -15 -1 0
312 3 0.3333276330210341 3.025480558159453 2.883253645935654 -15 -2 0
316 3 2.891445671908274 3.9050034910378657 2.88126584944159 -15 -2 0
299 3 5.4273344631376315 2.0972898512841267 2.896584791326358 -15 -2 0
918 3 4.148841727820224 0.24469810713095497 0.8850761445452696 -15 -1 0
898 3 6.679124544449761 1.1346638351205673 0.9140684443946351 -15 -1 0
298 3 4.130610656686318 2.976633322780718 0.9106925507607245 -15 -2 0
304 3 6.704915682708575 3.9119095606114596 0.9907586661366895 -15 -2 0
349 3 9.31467137448378 2.043696262170799 0.9503368521898536 -16 -2 0
899 3 7.973103897662353 0.30416290242041016 2.893835424180766 -15 -1 0
941 3 10.549705027743022 1.2043545619583729 2.8981994559344635 -16 -1 0
296 3 8.005119782468373 2.9977935372914106 2.9053170838950475 -15 -2 0
351 3 10.574877763240945 3.91979900858971 2.8919152339547023 -16 -2 0
933 3 14.410825838409638 1.1813406090039598 0.9755255019522897 -16 -1 0
331 3 13.111253086749354 2.1275319043922254 2.8960425978540316 -16 -2 0
330 3 11.811127804544805 3.039034852123948 0.9352572279465392 -16 -2 0
336 3 14.42870710818093 3.9526597877529666 0.8915755294753702 -16 -2 0
946 3 11.814266558533559 0.24807194222203308 0.9077221558411539 -16 -1 0
338 3 0.3602238609340897 5.709295056492576 2.8658762235878417 -15 -2 0
315 3 1.6123001676394706 4.852520719818391 0.8745384271404862 -15 -2 0
317 3 2.9150656967390156 6.600766988389122 2.877628880180311 -15 -2 0
344 3 1.6370921736205382 7.542258385805178 0.8388602772890653 -15 -2 0
300 3 5.45980325531311 4.802442612223717 2.9054120679285367 -15 -2 0
322 3 4.119769860275315 5.774121339730885 0.931925831805786 -15 -2 0
305 3 6.757349447702577 6.656910905752572 0.907141293081329 -15 -2 0
324 3 5.492455467535906 7.487601250215433 2.882078826284442 -15 -2 0
350 3 9.312437550006152 4.847193217776567 0.9138851873860967 -16 -2 0
306 3 8.042513017900665 5.703865025154139 2.89674809384553 -15 -2 0
352 3 10.608993451740115 6.605760677928465 2.885129521251272 -16 -2 0
366 3 9.328159072382315 7.549197941998386 0.8883937941227678 -16 -2 0
337 3 14.437453607079611 6.6597562923963425 0.851793550198197 -16 -2 0
357 3 11.874263204915904 5.75587198216081 0.8799239857847867 -16 -2 0
332 3 13.149781097171093 4.822740827930997 2.8741218567476823 -16 -2 0
359 3 13.16646927135278 7.496497898002685 2.8749419224461303 -16 -2 0
399 3 1.6049416367999858 2.124577549473837 4.885297734622107 -15 -2 0
996 3 2.888674594388786 1.2293123378645305 6.888300874889003 -15 -1 0
392 3 0.3413683930956383 3.0144569037555544 6.884569463537647 -15 -2 0
401 3 2.905582390291474 3.8998512992880463 6.885206314117448 -15 -2 0
1020 3 0.32729262324255426 0.34221599703861405 6.8896385937603135 -15 -1 0
393 3 1.6206863553758035 2.1211116157842724 8.88921663068038 -15 -2 0
997 3 4.174010050907862 0.33632620125269724 8.890591673010617 -15 -1 0
998 3 4.151997186324286 0.33259508193224835 4.887259190954813 -15 -1 0
976 3 6.713855524372418 1.2198292421792127 4.892086829618532 -15 -1 0
378 3 4.17221574585434 3.0053189605903707 4.887803083897395 -15 -2 0
379 3 5.451891393445528 2.116014872147059 6.8906856259100255 -15 -2 0
385 3 6.742174756246126 3.896863695060055 4.89344348803539 -15 -2 0
973 3 6.733950875285589 1.2265430625174394 8.891466170821829 -15 -1 0
373 3 4.180758771735861 3.0096985763949045 8.890977133382483 -15 -2 0
444 3 9.277881306949908 2.1180835292547777 4.887328846439581 -16 -2 0
977 3 8.002490263661855 0.3350531545997754 6.890990390055883 -15 -1 0
1031 3 10.563450332087513 1.2307005264981343 6.885966919540956 -16 -1 0
371 3 8.015731332826615 3.0084871608588872 6.889684713330811 -15 -2 0
446 3 10.580780276246573 3.902097060187296 6.883956886478867 -16 -2 0
438 3 9.294495381633245 2.1193851296909543 8.888931976979606 -16 -2 0
422 3 14.416003962159243 3.9039408679351917 8.885870629548366 -16 -2 0
1019 3 14.390056240852797 1.234724535361074 4.888504317459591 -16 -1 0
1033 3 11.828373707118827 0.33659219286283054 4.889241196463851 -16 -1 0
419 3 11.85278483404296 3.0163045186135626 4.8815723796105095 -16 -2 0
420 3 13.127236255685226 2.1241759200499124 6.8851214895746855 -16 -2 0
427 3 14.416057857318918 3.9116255879139024 4.87855786360294 -16 -2 0
414 3 11.854738881370348 3.0123419684469623 8.886383882805722 -16 -2 0
400 3 1.6330659416832856 4.793752371525521 4.876305830809573 -15 -2 0
429 3 0.357370343643764 5.683249009788089 6.879964178945484 -15 -2 0
402 3 2.919033972136725 6.5703433193208145 6.880099271684152 -15 -2 0
434 3 1.6486539998491534 7.466139498206765 4.8734261377081625 -15 -2 0
431 3 1.6308985345200215 7.465389272517455 8.88428684821398 -15 -2 0
403 3 4.186551559463012 5.682855224149442 8.888975777655963 -15 -2 0
407 3 4.203058298182827 5.6791685178078595 4.883484389061856 -15 -2 0
386 3 6.764422705716518 6.575177932177389 4.891622683482472 -15 -2 0
380 3 5.469318371958419 4.78815920848965 6.889992874676724 -15 -2 0
409 3 5.474813691298124 7.462210451596407 6.888912624481922 -15 -2 0
445 3 9.310416236702064 4.795462100071329 4.886737966453946 -16 -2 0
387 3 8.030585351079239 5.680824667018448 6.891699460055785 -15 -2 0
447 3 10.590916978140465 6.573327345904124 6.8912701457566605 -16 -2 0
462 3 9.323508743401602 7.468728628534552 4.894192845282476 -16 -2 0
439 3 9.30088447160666 4.791982566828627 8.891063376716206 -16 -2 0
423 3 14.421080796361855 6.57512525332665 8.886347038124581 -16 -2 0
428 3 14.436705366517948 6.5805279981158185 4.87611413923092 -16 -2 0
448 3 11.860691236402701 5.683934935851263 8.889095123848932 -16 -2 0
453 3 11.876633452629402 5.691882678579945 4.881221009616419 -16 -2 0
455 3 13.150516640754098 7.464355396778122 6.888923424368159 -16 -2 0
421 3 13.143255093728754 4.795145569902935 6.882470022831153 -16 -2 0
381 3 6.740827912753381 3.900218474998492 8.892570520023074 -15 -2 0
1016 3 14.408811524770035 1.2314050780648942 8.8890292147021 -16 -1 0
1032 3 11.848827938567908 0.339371810685708 8.889619138717888 -16 -1 0
394 3 1.628077181054135 4.793436004347032 8.885896561867357 -15 -2 0
382 3 6.744089717318942 6.573607624382231 8.894094704363672 -15 -2 0
460 3 9.301803269929925 7.464755022567827 8.896633675131053 -16 -2 0
1017 3 0.3418376929024559 0.3392856350972864 10.89078516235705 -15 -1 0
390 3 1.6196408757643586 2.124333624218999 12.892910134683513 -15 -2 0
389 3 0.3438502752089721 3.0134988170192427 10.889445897857122 -15 -2 0
991 3 2.90032820835526 1.2298139332128744 10.89206766897796 -15 -1 0
395 3 2.9025412099805257 3.9039600277390134 10.891606506407898 -15 -2 0
992 3 4.176483798600978 0.34096133319853145 12.893971374269949 -15 -1 0
374 3 5.4583778485333525 2.119976132281118 10.893688265238293 -15 -2 0
967 3 6.733254100242211 1.2311106352389283 12.895017907965224 -15 -1 0
372 3 4.177494804669784 3.0149486262648164 12.896439338810707 -15 -2 0
376 3 6.7353289975865165 3.9048422221600125 12.89805078427336 -15 -2 0
524 3 11.858661417010103 5.686625200857749 16.89633867131687 -16 -2 0
974 3 8.014487437514367 0.33676062954244396 10.89177376750546 -15 -1 0
436 3 9.291424163255549 2.1217724060569627 12.893152515745763 -16 -2 0
370 3 8.016556044782698 3.011140215451172 10.893255635814928 -15 -2 0
1026 3 10.573213883391114 1.2293022439500279 10.889906154128418 -16 -1 0
440 3 10.575236000010708 3.9031100253677296 10.890973483551083 -16 -2 0
1010 3 14.409209731321937 1.2322234119513218 12.890062533517392 -16 -1 0
1027 3 11.84960307299835 0.33949082201902375 12.89002417436139 -16 -1 0
415 3 13.132614988297066 2.121874554264346 10.888746281005291 -16 -2 0
413 3 11.851002363636923 3.0136236887505836 12.890647077887344 -16 -2 0
417 3 14.410821849965162 3.9061783483142034 12.89008221828713 -16 -2 0
503 3 13.130923997059858 4.797706818256475 14.89219013175024 -16 -2 0
529 3 13.136699900368399 7.471146217827077 14.893080804188397 -16 -2 0
391 3 1.6214823524865662 4.79803585483586 12.89196448195734 -15 -2 0
424 3 0.34567157092793543 5.686851853678854 10.88791140842741 -15 -2 0
396 3 2.903439584921975 6.577624920972517 10.88955002281012 -15 -2 0
426 3 1.6229025708874172 7.471543010743865 12.889687373711402 -15 -2 0
523 3 10.577489478018414 6.577981462228739 14.899120791963432 -16 -2 0
375 3 5.460239929029083 4.794194267140407 10.89469060970453 -15 -2 0
397 3 4.179776179931973 5.688404867143672 12.895718060503695 -15 -2 0
377 3 6.737725981113932 6.578287491743086 12.899266628560385 -15 -2 0
405 3 5.460071179846903 7.468095614197624 10.894256982640496 -15 -2 0
532 3 9.309120796320157 7.4674551425786655 16.904906522402904 -16 -2 0
383 3 8.017844490313545 5.684933920568042 10.896311470368703 -15 -2 0
437 3 9.293986059154168 4.795436355933725 12.89673714436091 -16 -2 0
441 3 10.576086667651522 6.576320551618694 10.894946605213683 -16 -2 0
458 3 9.295639980267381 7.468889523398421 12.899421211040949 -16 -2 0
477 3 8.01648537421835 5.6876051845658955 14.902334657299273 -15 -2 0
450 3 13.13523003143558 7.468357202753416 10.891511580358994 -16 -2 0
418 3 14.412504198312515 6.579806512904082 12.890136404333674 -16 -2 0
416 3 13.134786863221962 4.795234813189528 10.8888999691203 -16 -2 0
442 3 11.853168949603209 5.687266463205919 12.893363065201473 -16 -2 0
505 3 14.421283773403268 6.582676085849578 16.89207869766375 -16 -2 0
1083 3 0.3325192683109504 0.3449385479272074 14.890925980391586 -15 -1 0
482 3 1.6001785046559265 2.132907500296319 16.898315223232913 -15 -2 0
1067 3 2.8898094346935825 1.2378990373182872 14.896917060098458 -15 -1 0
481 3 0.335413811225257 3.0184350239129754 14.892980802391444 -15 -2 0
487 3 2.8949403925843753 3.9104160863536697 14.89820345770102 -15 -2 0
1068 3 4.153801342614718 0.35154934851003405 16.90042656465921 -15 -1 0
471 3 5.4469914799334695 2.1278230333865005 14.900661035042347 -15 -2 0
1051 3 6.711804754000334 1.2400863413474665 16.90189044560192 -15 -1 0
467 3 4.161118885510673 3.0248723145715464 16.90628815503245 -15 -2 0
473 3 6.725620437933576 3.9106847663641324 16.905842795828686 -15 -2 0
1053 3 8.003288536722092 0.3432143823256664 14.894854470432803 -15 -1 0
517 3 9.273662257895438 2.1266240028325742 16.896944084767885 -16 -2 0
1091 3 10.562857084847094 1.2329648446830108 14.891594909436515 -16 -1 0
465 3 8.007260735521873 3.0158963937393577 14.899056196956563 -15 -2 0
522 3 10.569347376761545 3.9054153583405182 14.89524434187031 -16 -2 0
1081 3 14.389652296536223 1.2371965879545916 16.890837012859016 -16 -1 0
1092 3 11.829532696666412 0.344272159280438 16.88928455237841 -16 -1 0
502 3 13.123824789204365 2.1248996775799607 14.890123902430265 -16 -2 0
498 3 11.838299796829219 3.015684410133905 16.892679735741744 -16 -2 0
504 3 14.402877883372556 3.9098079137049955 16.892976557306067 -16 -2 0
483 3 1.6170635482195737 4.805379922900023 16.8974263312708 -15 -2 0
509 3 0.34269105802962335 5.691325236890583 14.891754357180764 -15 -2 0
488 3 2.902651110417938 6.58237596050243 14.894834149294093 -15 -2 0
511 3 1.632367596487415 7.476752704470368 16.892748429369632 -15 -2 0
494 3 5.462593282376004 7.471003482150669 14.899404581751039 -15 -2 0
489 3 4.180677227749873 5.694146198198637 16.90315616055384 -15 -2 0
472 3 5.454903933691927 4.799256559520594 14.901836152957395 -15 -2 0
474 3 6.745000872266925 6.579588476916754 16.905501910870363 -15 -2 0
518 3 9.291821538566925 4.79649761147514 16.902009839210685 -16 -2 0
1082 3 0.3045729312808182 0.3413293511604128 18.89219464441734 -15 -1 0
555 3 1.5998752132961043 2.0982677253140722 20.885202111375726 -15 -2 0
1064 3 2.8633487789546557 1.2384239497349574 18.902189470363037 -15 -1 0
479 3 0.3183645849553642 3.0195151468322123 18.89372726457143 -15 -2 0
484 3 2.8868721191792646 3.9194064186930997 18.90493503484818 -15 -2 0
1065 3 4.153490029006173 0.3105789616679177 20.90274195478041 -15 -1 0
468 3 5.4299350673756654 2.13079692139906 18.91027026806551 -15 -2 0
1047 3 6.7040005067138715 1.2122210418639563 20.910779682128023 -15 -1 0
466 3 4.179788632726241 3.0047232318887422 20.902244426015024 -15 -2 0
470 3 6.7276415137255645 3.9076217249075227 20.912515905286988 -15 -2 0
1052 3 7.978109160179313 0.3427027846116575 18.89957594909726 -15 -1 0
515 3 9.24765960415075 2.106866306453998 20.90101068984202 -16 -2 0
1088 3 10.533168814891091 1.2317516706904077 18.893277145144044 -16 -1 0
464 3 7.990108495744133 3.0180004751233427 18.905921631969363 -15 -2 0
519 3 10.55385380510328 3.9048662641783793 18.897704485376373 -16 -2 0
1143 3 14.358121672459443 1.2034987928139464 20.88772423723824 -16 -1 0
1089 3 11.794127852980997 0.31772767229440474 20.8927063097535 -16 -1 0
499 3 13.096690710047943 2.12153756936112 18.889551421816606 -16 -2 0
497 3 11.80389048330324 2.9970778221705667 20.885356991699155 -16 -2 0
573 3 14.390098999192396 3.9010247267577904 20.8675958917175 -16 -2 0
480 3 1.6376628272484632 4.811606581318155 20.88443587977737 -15 -2 0
506 3 0.35237252393299295 5.700561974037974 18.89206419349597 -15 -2 0
485 3 2.9179650020757593 6.5938899211433615 18.900861995599698 -15 -2 0
508 3 1.6594819498169056 7.519509538882423 20.892177056298138 -15 -2 0
469 3 5.456494030201843 4.806195400211926 18.910949493492716 -15 -2 0
486 3 4.202820854149604 5.714048589902837 20.90809089520045 -15 -2 0
546 3 6.749072247897498 6.603702959623657 20.91178279342756 -15 -2 0
491 3 5.479633809942186 7.478531256990223 18.905081744561784 -15 -2 0
516 3 9.271493859194724 4.801513368715901 20.905204699325566 -16 -2 0
475 3 8.019163696205103 5.689840843921564 18.908760413772615 -15 -2 0
520 3 10.588090280879834 6.579357820281706 18.899394194628456 -16 -2 0
595 3 9.294088734831053 7.50590110818311 20.89804107237229 -16 -2 0
501 3 14.426222537064561 6.621189216991309 20.871866184561444 -16 -2 0
500 3 13.127020281840482 4.798997104746124 18.890487617513816 -16 -2 0
589 3 11.833904020173787 5.709476773830074 20.876084158760257 -16 -2 0
526 3 13.156873773560275 7.479730112332208 18.89144118110138 -16 -2 0
1144 3 0.29507862314384936 0.23723530966350898 22.895271284204245 -15 -1 0
551 2 1.6661312162181605 1.9289076498050266 24.929258350986775 -15 -2 0
1128 3 2.9368139160957862 1.122100916265168 22.868634231180298 -15 -1 0
550 3 0.3329453314594202 2.946053657018683 22.79145978063561 -15 -2 0
556 3 2.9744542828941056 3.8700119210820745 22.840051552801736 -15 -2 0
1129 3 4.186848699926321 0.15224301969701512 24.98504731341518 -15 -1 0
540 3 5.456866005291101 2.0570450750189293 22.91444734110642 -15 -2 0
1112 3 6.725579706303979 1.0811978152821111 24.88660197043588 -15 -1 0
537 3 4.249904524001419 2.933452566143532 24.865670264568177 -15 -2 0
542 3 6.725751325029666 3.8834488926006645 24.86061219059026 -15 -2 0
1114 3 7.976795402712262 0.2625933070043803 22.92146376072718 -15 -1 0
580 3 9.285590659308857 2.0075779455671388 24.86022417613936 -16 -2 0
536 3 7.989997133274025 2.975745206317258 22.90732799121431 -15 -2 0
1151 3 10.523658077784534 1.154458701822245 22.899226023776695 -16 -1 0
584 3 10.515297580068387 3.873210926645506 22.871484478904573 -16 -2 0
1141 3 14.38824309310425 0.9942621162713113 24.91847573167941 -16 -1 0
567 3 13.06909450860357 2.0327839854675904 22.864383771974005 -16 -2 0
564 3 11.787799772814232 2.8832338142816836 24.84341749313905 -16 -2 0
569 2 14.36574469144338 3.832434066676348 24.856790273393127 -16 -2 0
1152 3 11.86099667904949 0.16541247973750817 24.918181801600685 -16 -1 0
574 3 0.35346487480668626 5.758279718819382 22.7892636484566 -15 -2 0
552 2 1.6781265850759313 4.857311521020969 24.869838607525796 -15 -2 0
557 3 2.9506706112231402 6.682081286100068 22.881189679706363 -15 -2 0
576 3 1.6724215501980813 7.701475079815915 24.897910730886633 -15 -2 0
558 3 4.227818922844875 5.792967924775895 24.86304022844546 -15 -2 0
541 3 5.471886442275148 4.817547853949515 22.90565856988886 -15 -2 0
543 3 6.712755137556121 6.716033761861075 24.877821189715135 -15 -2 0
562 3 5.474354170957225 7.562636316920444 22.918144886141878 -15 -2 0
581 3 9.212134515254405 4.812692844585991 24.849626799089727 -16 -2 0
547 3 7.9926675651824866 5.7385481488344485 22.90813848049042 -15 -2 0
585 3 10.493518059998255 6.692763803276289 22.84422671538882 -16 -2 0
593 3 9.211081794908482 7.673383566981559 24.91680496377756 -16 -2 0
590 3 13.092700323366813 7.615687085420958 22.824954690340437 -16 -2 0
570 2 14.389660379223102 6.789949149247601 24.90393900648836 -16 -2 0
568 3 13.088426298663009 4.809657590183202 22.779198740828804 -16 -2 0
586 2 11.761315826067246 5.780657888133503 24.859177580967305 -16 -2 0
23 2 1.6533143933874686 1.8610389109922896 29.447433962288354 -15 -2 -1
549 2 0.36604870209028134 2.8475017600789823 27.15565216098763 -15 -2 0
1125 3 2.912633969573969 0.9232314180487742 27.13667723067238 -15 -1 0
553 2 2.92840317603388 3.8379659209978176 27.1182057785307 -15 -2 0
538 2 5.425255088982167 1.9109946380399123 27.071129081070676 -15 -2 0
6 2 4.175518899292219 2.880086796035843 29.450841002603408 -15 -2 -1
619 2 6.758323659350581 0.9399898462524581 29.45906742087434 -15 -1 -1
13 2 6.725564438395335 3.8560772264020877 29.434820080204354 -15 -2 -1
44 2 14.41424063931774 6.760685650925213 34.15907131264719 -16 -2 -1
42 2 13.132159991010015 4.80149544217138 31.809503932609818 -16 -2 -1
59 2 9.311784183515785 1.8975362746955295 29.453215883770564 -16 -2 -1
1148 2 10.600296299966296 0.9736931482157313 27.091712471830743 -16 -1 0
535 2 8.004658131947837 2.906714080029488 27.05083519768007 -15 -2 0
582 2 10.54859715125658 3.8530751378389962 27.062963747277085 -16 -2 0
655 2 14.483947939530609 0.9013798945589218 29.48188240091761 -16 -1 -1
565 2 13.163054838370499 1.886612470256432 27.09722543546886 -16 -2 0
40 2 11.866143320476011 2.863080726611568 29.45757234745606 -16 -2 -1
47 2 14.42296935147759 3.8334981633039247 29.471169308049618 -16 -2 -1
24 2 1.6067269962863624 4.858241708243573 29.47203379027867 -15 -2 -1
571 2 0.3258294643205825 5.816310537998321 27.160567804956404 -15 -2 0
554 2 2.8667373577443596 6.818318446448406 27.128403323863072 -15 -2 0
53 3 1.5708040769942198 7.790882807193624 29.475099991024873 -15 -2 -1
31 2 4.134636657571621 5.826935597171206 29.455563408581433 -15 -2 -1
539 2 5.440450549149315 4.84544516272068 27.05886132078185 -15 -2 0
14 2 6.682157010316036 6.801431317656314 29.43606497238036 -15 -2 -1
560 2 5.44497899128216 7.748786474581221 27.09720268262854 -15 -2 0
73 2 9.207101464216096 7.762381690985545 29.40588848127098 -16 -2 -1
60 2 9.26527388677543 4.826761997909946 29.43648521780266 -16 -2 -1
583 2 10.524035541862435 6.816307613463638 27.09487058222216 -16 -2 0
544 2 7.977909923087246 5.821804002003152 27.052393011229125 -15 -2 0
566 2 13.102609781584633 4.84263396642571 27.136702988181156 -16 -2 0
66 2 11.831821384066833 5.800497489230432 29.439523004481288 -16 -2 -1
48 2 14.414893871486086 6.830259816006576 29.438856029291177 -16 -2 -1
588 3 13.055509104613648 7.726048564672334 27.110735185916226 -16 -2 0
19 2 1.6609828991327096 1.8492011121306957 34.1976619975036 -15 -2 -1
636 2 2.8936783442395395 0.8989778127014237 31.8492167346091 -15 -1 -1
18 2 0.3645390717299483 2.8299796749142567 31.823278867914237 -15 -2 -1
25 2 2.894674722688843 3.8425578641367353 31.817102220669 -15 -2 -1
63 2 11.829349084928786 5.774330652010165 34.161457987012184 -16 -2 -1
7 2 5.4529441854469045 1.8811624376292988 31.817947299240483 -15 -2 -1
3 2 4.181957036722276 2.8343581331985983 34.17898253031314 -15 -2 -1
616 2 6.700584368950214 0.9163713125466773 34.17673954260074 -15 -1 -1
9 2 6.7244419064359535 3.8251663040214936 34.179347884649516 -15 -2 -1
68 2 13.110331456329742 7.713484740395326 31.785454186101948 -16 -2 -1
55 2 9.321943286664267 1.8380449620727526 34.208872121730124 -16 -2 -1
2 2 8.01731512132199 2.865808675095756 31.816148749402934 -15 -2 -1
664 2 10.619572003250028 0.9180033968552505 31.85871053867192 -16 -1 -1
61 2 10.571060675187512 3.822927323145263 31.81761477464118 -16 -2 -1
15 2 7.982618392133217 5.796234801628617 31.8059132148921 -15 -2 -1
652 2 14.426380301970235 0.8859294891285956 34.17410337046296 -16 -1 -1
37 2 11.85448046548435 2.813340506241319 34.1840202609843 -16 -2 -1
41 2 13.174457126087702 1.859473651024655 31.836332507783162 -16 -2 -1
43 2 14.420290333936551 3.814534477697294 34.170895970714184 -16 -2 -1
56 2 9.280108070163536 4.792742380041082 34.16889999783162 -16 -2 -1
51 2 1.677743116006688 7.754429323640776 34.15289381549078 -15 -2 -1
20 2 1.6396223698406969 4.809460701854649 34.167847516497865 -15 -2 -1
49 2 0.33908833932405585 5.801488376163942 31.806145032289738 -15 -2 -1
26 2 2.8582723996471158 6.822521866971873 31.794192742324032 -15 -2 -1
8 2 5.434403637213299 4.831626774021686 31.815312968780507 -15 -2 -1
27 2 4.171162582144947 5.818523676707612 34.17759643108456 -15 -2 -1
10 2 6.698767107663421 6.78100279036843 34.18055136507685 -15 -2 -1
33 2 5.379226483585017 7.7484549844481245 31.841093026844515 -15 -2 -1
71 2 9.229111283921641 7.755792739776701 34.18550761822156 -16 -2 -1
62 2 10.532450031472365 6.752884818233015 31.79072378316405 -16 -2 -1
97 2 1.7036886268590563 1.9348115359423834 38.79034043299435 -15 -2 -1
17 2 0.3665585971593763 2.8130986918529994 36.4980112672263 -15 -2 -1
632 3 2.9145178501376683 0.9124033387815326 36.44488105028084 -15 -1 -1
21 2 2.9415705250154045 3.8003986828566476 36.529433156761534 -15 -2 -1
117 2 14.411544574409827 6.835152530704002 43.48607990643112 -16 -2 -1
4 2 5.41283683153084 1.8562672405390617 36.555649796738344 -15 -2 -1
80 3 4.218206260504743 2.853705181605898 38.830707455913256 -15 -2 -1
690 3 6.754632901424257 0.9059651535751896 38.886357989767255 -15 -1 -1
87 2 6.679771741595188 3.7788498846802594 38.85486260574606 -15 -2 -1
141 2 13.151323025165196 7.778485384426845 41.19345113116584 -16 -2 -1
132 2 9.243573472105531 1.8145438876656288 38.82230318441219 -16 -2 -1
1 2 8.003156839016006 2.8242399939634555 36.526688472405155 -15 -2 -1
660 3 10.592983468297025 0.8751669272882938 36.50345213709938 -16 -1 -1
57 2 10.552469417888029 3.7893325231635786 36.509593823269185 -16 -2 -1
726 2 14.398924092472933 0.9302825495368473 38.828846453666586 -16 -1 -1
38 2 13.0903835115237 1.83057705066051 36.503247296250095 -16 -2 -1
113 2 11.81746811934239 2.810358401627564 38.825404059272884 -16 -2 -1
120 2 14.415796615568116 3.823770548206676 38.83563966938579 -16 -2 -1
98 2 1.6527196039996361 4.815147911576811 38.83608224236059 -15 -2 -1
45 2 0.3628630245323132 5.780115199635681 36.50235423273002 -15 -2 -1
22 2 2.9309164031522372 6.815384893611052 36.50075773921703 -15 -2 -1
126 2 1.6310798855322353 7.746552057367162 38.87114168514874 -15 -2 -1
5 2 5.453023777503037 4.809209785013314 36.52574808925597 -15 -2 -1
104 2 4.193059985218505 5.795306093532615 38.84544152152531 -15 -2 -1
88 2 6.709743011645742 6.8073321574624 38.85094425625953 -15 -2 -1
29 2 5.466106122195415 7.806410170163893 36.50182496629466 -15 -2 -1
133 2 9.246416377578587 4.798449081100039 38.84239599054162 -16 -2 -1
11 2 7.9869341322858505 5.801550373360036 36.51447108675261 -15 -2 -1
58 2 10.51623062150692 6.759010245889132 36.50098494769498 -16 -2 -1
146 2 9.202589218103409 7.775711356170858 38.81809976801873 -16 -2 -1
121 2 14.408467458259995 6.763382416489735 38.84801673140243 -16 -2 -1
39 2 13.119840317335889 4.785267955576801 36.50424903660587 -16 -2 -1
139 2 11.82121679813324 5.778645517584098 38.83727551311057 -16 -2 -1
65 2 13.102588975013807 7.717853940476129 36.50128002776687 -16 -2 -1
93 2 1.6409395927368597 1.8983482101276676 43.475458398255384 -15 -2 -1
92 2 0.3548832464933299 2.8550120920699977 41.15614426263806 -15 -2 -1
707 2 2.9034232494209093 0.9302651288660535 41.160370242063834 -15 -1 -1
99 2 2.9360486402988464 3.846376474773729 41.13701021413812 -15 -2 -1
136 2 11.812712277518537 5.824511968508288 43.49563039041261 -16 -2 -1
81 2 5.494684282850555 1.8548177491335969 41.14615691824608 -15 -2 -1
77 2 4.205916307580068 2.879768941200932 43.48484971987844 -15 -2 -1
687 3 6.7517735977312725 0.8803965582654831 43.450492934173774 -15 -1 -1
83 2 6.713415819614399 3.8669764417132537 43.49592604097147 -15 -2 -1
128 2 9.203328062054272 1.8502005976479754 43.480482198253085 -16 -2 -1
735 2 10.513464011708184 0.8961877695279097 41.12858686233149 -16 -1 -1
76 2 7.98067532243809 2.8263374637228993 41.174629306959076 -15 -2 -1
134 2 10.525898763770709 3.828759504590091 41.1636803593577 -16 -2 -1
723 2 14.43618976188125 0.9164418906533994 43.43830349940657 -16 -1 -1
114 2 13.12124730160612 1.864369525162955 41.146312189953505 -16 -2 -1
110 2 11.814889034633048 2.8690297434883556 43.48054843865373 -16 -2 -1
116 2 14.407956437962783 3.86592123077439 43.48313639414166 -16 -2 -1
115 2 13.117777334930217 4.819137987857212 41.168383927228206 -16 -2 -1
94 2 1.6449772565739569 4.872872632601866 43.4843450515975 -15 -2 -1
122 2 0.349740687778314 5.839055014915166 41.17374167778797 -15 -2 -1
100 2 2.9088279067072857 6.848473348900942 41.18072502923136 -15 -2 -1
124 2 1.6600698212387732 7.798827553538152 43.46629758965326 -15 -2 -1
106 2 5.432241777783317 7.806011276418559 41.24854190376706 -15 -2 -1
84 3 6.668207456853507 6.895352441283824 43.55338416858657 -15 -2 -1
82 2 5.458370931305556 4.84053492436183 41.18024664122278 -15 -2 -1
101 2 4.239031739493528 5.9012765318818365 43.505960742453745 -15 -2 -1
144 2 9.156439097208608 7.786983184177705 43.54451277167133 -16 -2 -1
135 2 10.521972641007586 6.777474350113781 41.1789704239885 -16 -2 -1
129 2 9.229755498162659 4.8578755266851195 43.501165616843316 -16 -2 -1
89 2 7.958765169038067 5.833181985648989 41.20790300267165 -15 -2 -1
709 2 4.274547310659273 0.0968866868730629 38.80569331401248 -15 -1 -1
177 2 1.6299124723871168 1.9056004840589702 48.155177953268506 -15 -2 -1
703 2 2.924608653627608 0.9256158237340588 45.8146073555453 -15 -1 -1
91 2 0.3473667785354619 2.9021180882345172 45.812245334988255 -15 -2 -1
95 2 2.9155622311735145 3.897026458729354 45.815565611260574 -15 -2 -1
78 2 5.4682155661014855 1.8790452758263023 45.788862313358365 -15 -2 -1
766 2 6.71736578855227 0.9138600037302718 48.14386309318997 -15 -1 -1
156 2 4.171004815461258 2.9023906810048543 48.15084297466919 -15 -2 -1
163 2 6.70803483526991 3.897254846882992 48.14658272432223 -15 -2 -1
222 2 9.256228469102577 1.9027467501901887 48.15596639129494 -16 -2 -1
75 2 7.970923480732759 2.896521428083811 45.813303409514475 -15 -2 -1
731 2 10.541292968275453 0.9555733855616327 45.811306431665464 -16 -1 -1
130 2 10.526346355670052 3.8821122609168968 45.82549129289774 -16 -2 -1
810 2 14.445811979212584 0.9309469794199704 48.160476374394065 -16 -1 -1
111 2 13.128206805013312 1.90045271227621 45.806616705092985 -16 -2 -1
197 2 11.822441407837522 2.9054777414039616 48.156169118498084 -16 -2 -1
205 2 14.40207837949839 3.893712267860109 48.1490818493588 -16 -2 -1
178 2 1.625771491018568 4.8951281983132295 48.1458056815121 -15 -2 -1
118 2 0.35508350832002394 5.8592126756615865 45.81317651040546 -15 -2 -1
96 2 2.973282072540043 6.9006831523865495 45.81134976914903 -15 -2 -1
212 2 1.6743112535923088 7.848207431562372 48.15259118757609 -15 -2 -1
164 2 6.674712894009507 6.904204101642041 48.10634779654523 -15 -2 -1
79 2 5.446570181853701 4.907655665541555 45.80797806598268 -15 -2 -1
185 2 4.179036170673464 5.906372068495549 48.13608002194195 -15 -2 -1
103 3 5.4704450358815935 7.8640034813641755 45.774174202002406 -15 -2 -1
239 2 9.192636789050972 7.837627075395223 48.16139033682665 -16 -2 -1
131 2 10.494230567887923 6.8438750454774935 45.835397167989484 -16 -2 -1
223 2 9.240424836699985 4.894436470649418 48.16095387684916 -16 -2 -1
85 2 7.930750055915364 5.91167928875188 45.791640961515554 -15 -2 -1
206 2 14.401684684052807 6.860311999234089 48.156231438190304 -16 -2 -1
231 2 11.804561841392127 5.863285397439571 48.16820711160124 -16 -2 -1
112 2 13.106074276487275 4.859516419358613 45.81845352712877 -16 -2 -1
138 2 13.099133114847435 7.763826017561505 45.83006250539501 -16 -2 -1
170 2 0.3452510145118452 2.8901660328619685 50.4757888899491 -15 -2 -1
786 2 2.8955403661127437 0.9005873054534775 50.48971687576991 -15 -1 -1
179 2 2.899360473414565 3.8950905768530077 50.47945546775594 -15 -2 -1
157 2 5.433268382060672 1.885745630001582 50.49142770893168 -15 -2 -1
822 2 10.518073359788985 0.9489505044632875 50.49382989859165 -16 -1 -1
149 2 7.995247693704043 2.8821449612684824 50.515863587126944 -15 -2 -1
224 2 10.526254341965227 3.8992759176039464 50.49367824801242 -16 -2 -1
198 2 13.125849670891592 1.9328767660813033 50.47066632663665 -16 -2 -1
180 2 2.9114943049508426 6.892353451378832 50.47386016581807 -15 -2 -1
207 2 0.3340440328693289 5.880866364457122 50.47921843149781 -15 -2 -1
233 2 13.073050807912072 7.828269222246254 50.52617386011583 -16 -2 -1
187 2 5.452380420118622 7.873180195289146 50.461193064828834 -15 -2 -1
158 2 5.444552681219563 4.89254604791018 50.47154559719856 -15 -2 -1
199 2 13.09983123469298 4.889991801581798 50.48546821900057 -16 -2 -1
165 2 7.978719339940728 5.906689521005011 50.48221897669581 -15 -2 -1
225 2 10.491504033559977 6.892770755260142 50.532825563581284 -16 -2 -1
167 2 0.34878067262806195 2.880600471710269 55.10995059281616 -15 -2 -1
781 2 2.943214901656396 0.9087936693878801 55.08434370628422 -15 -1 -1
173 2 2.903363513241576 3.8868303907163884 55.09456671257852 -15 -2 -1
171 2 1.6391443521831612 1.908015940836426 52.797471792162135 -15 -2 -1
151 2 4.193114789259496 2.8565343200746662 52.82484566305186 -15 -2 -1
152 3 5.448620280542084 1.8710893710471628 55.07540672507376 -15 -2 -1
763 2 6.6951386560465584 0.9240369076388614 52.85538255473072 -15 -1 -1
159 2 6.716991727107269 3.8807475241356078 52.79001216951151 -15 -2 -1
817 2 10.481783117842296 0.9477764951414245 55.06456691409452 -16 -1 -1