LAMMPS (22 Dec 2022)
OMP_NUM_THREADS environment is not set. Defaulting to 1 thread. (../comm.cpp:98)
  using 1 OpenMP thread(s) per MPI task
# general variables
variable	temperature equal 300 #change this to the temperature of interest
variable	nsteps_run equal 5000000

# general settings
units		metal
dimension 3
boundary	p p p

#processors      3 3 3
atom_style	atomic

# ------------------- ATOM DEFINE ------------------------------

variable        latparam equal 3.11057999999986             #variable

variable        xl equal 0
variable        xh equal 3
variable        yl equal 0
variable        yh equal 3
variable        zl equal 0
variable        zh equal 16

lattice         bcc ${latparam} orient x 1 1 -2 orient y 1 1 1 orient z 1 -1 0
lattice         bcc 3.11057999999986 orient x 1 1 -2 orient y 1 1 1 orient z 1 -1 0
Lattice spacing in x,y,z = 5.0795559 5.3876826 4.3990244
region          mybox block ${xl} ${xh} ${yl} ${yh} ${zl} ${zh}
region          mybox block 0 ${xh} ${yl} ${yh} ${zl} ${zh}
region          mybox block 0 3 ${yl} ${yh} ${zl} ${zh}
region          mybox block 0 3 0 ${yh} ${zl} ${zh}
region          mybox block 0 3 0 3 ${zl} ${zh}
region          mybox block 0 3 0 3 0 ${zh}
region          mybox block 0 3 0 3 0 16

create_box      5 mybox
Created orthogonal box = (0 0 0) to (15.238668 16.163048 70.384391)
  1 by 2 by 8 MPI processor grid

mass 1 180.948
mass 2 92.9064
mass 3 50.9415
mass 4 95.94
mass 5 183.84

create_atoms 3 box
Created 1152 atoms
  using lattice units in orthogonal box = (0 0 0) to (15.238668 16.163048 70.384391)
  create_atoms CPU = 0.001 seconds
set type 3 type/ratio 2 0.3 384
Setting atom values ...
  345 settings made for type/ratio

# ----------------------- FORCE FIELDS -----------------------
pair_style mlip mlip.ini
pair_coeff * *

# ------------------------- SETTINGS --------------------------
timestep 0.001
delete_atoms overlap 2 all all
System init for delete_atoms ...
Neighbor list info ...
  update: every = 1 steps, delay = 0 steps, check = yes
  max neighbors/atom: 2000, page size: 100000
  master list distance cutoff = 6.8
  ghost atom cutoff = 6.8
  binsize = 3.4, bins = 5 5 21
  2 neighbor lists, perpetual/occasional/extra = 1 1 0
  (1) command delete_atoms, occasional, copy from (2)
      attributes: full, newton on
      pair build: copy
      stencil: none
      bin: none
  (2) pair mlip, perpetual
      attributes: full, newton on
      pair build: full/bin/atomonly
      stencil: full/bin/3d
      bin: standard
Deleted 0 atoms, new total = 1152
velocity all create ${temperature} 4928459 rot yes dist gaussian
velocity all create 300 4928459 rot yes dist gaussian

fix 1 all atom/swap 1 1 114514 ${temperature} types 3 2
fix 1 all atom/swap 1 1 114514 300 types 3 2
fix temp all npt temp ${temperature} ${temperature} 0.1 iso 0 0 0.1
fix temp all npt temp 300 ${temperature} 0.1 iso 0 0 0.1
fix temp all npt temp 300 300 0.1 iso 0 0 0.1
thermo 1000
thermo_style custom step pe ke etotal time cpu tpcpu

dump 1 all custom 20000 dump.* id type x y z
run ${nsteps_run}
run 5000000
Neighbor list info ...
  update: every = 1 steps, delay = 0 steps, check = yes
  max neighbors/atom: 2000, page size: 100000
  master list distance cutoff = 6.8
  ghost atom cutoff = 6.8
  binsize = 3.4, bins = 5 5 21
  1 neighbor lists, perpetual/occasional/extra = 1 0 0
  (1) pair mlip, perpetual
      attributes: full, newton on
      pair build: full/bin/atomonly
      stencil: full/bin/3d
      bin: standard
Per MPI rank memory allocation (min/avg/max) = 4.346 | 4.351 | 4.355 Mbytes
   Step         PotEng         KinEng         TotEng          Time           CPU           T/CPU     
         0  -10707.257      44.633528     -10662.623      0              0              0            
      1000  -10700.066      43.89468      -10656.172      1              118.8282       0.0084155108 
      2000  -10705.177      45.188315     -10659.989      2              239.43337      0.0082915183 
      3000  -10705.995      48.490413     -10657.504      3              360.42179      0.0082652539 
      4000  -10704.575      41.805007     -10662.77       4              483.64035      0.0081156605 
      5000  -10708.294      42.636387     -10665.658      5              607.44292      0.0080773766 
      6000  -10706.537      43.414207     -10663.123      6              733.00728      0.0079640435 
      7000  -10710.572      45.430433     -10665.142      7              858.84316      0.0079468594 
      8000  -10709.742      45.524585     -10664.218      8              986.06475      0.0078603008 
      9000  -10713.663      43.992364     -10669.67       9              1114.9353      0.0077597255 
     10000  -10711.529      44.54662      -10666.983      10             1243.2473      0.0077935023 
     11000  -10710.953      46.02233      -10664.931      11             1372.2507      0.0077517357 
     12000  -10713.12       44.808198     -10668.312      12             1500.2837      0.0078104837 
     13000  -10708.472      46.093736     -10662.379      13             1628.1365      0.0078214953 
     14000  -10712.519      43.905201     -10668.614      14             1756.9494      0.0077631985 
     15000  -10713.106      45.519128     -10667.587      15             1885.731       0.0077650814 
     16000  -10712.725      44.646332     -10668.079      16             2013.4274      0.0078310746 
     17000  -10713.888      45.841155     -10668.047      17             2140.3061      0.0078815441 
     18000  -10713.055      43.180309     -10669.875      18             2266.9268      0.0078976047 
     19000  -10714.173      43.265022     -10670.908      19             2395.6284      0.0077699134 
     20000  -10715.663      45.911513     -10669.752      20             2524.1693      0.0077796213 
     21000  -10714.892      44.217451     -10670.675      21             2654.1804      0.00769165   
     22000  -10717.197      44.713963     -10672.483      22             2783.9213      0.007707675  
     23000  -10715.401      45.387107     -10670.014      23             2913.0901      0.0077418076 
     24000  -10717.977      44.691796     -10673.285      24             3042.3396      0.0077369687 
     25000  -10717.341      44.845685     -10672.495      25             3170.3087      0.0078143885 
     26000  -10716.551      44.874826     -10671.676      26             3297.7792      0.0078449506 
     27000  -10717.662      43.925522     -10673.737      27             3423.6807      0.0079427163 
     28000  -10717.079      43.990683     -10673.089      28             3552.0544      0.0077897591 
     29000  -10717.639      45.186739     -10672.453      29             3678.2944      0.0079214198 
     30000  -10719.164      44.290303     -10674.874      30             3807.636       0.007731464  
     31000  -10717.989      46.286699     -10671.703      31             3935.0456      0.0078487047 
     32000  -10717.017      43.664807     -10673.352      32             4062.4938      0.0078463224 
     33000  -10717.505      46.556936     -10670.948      33             4190.7453      0.0077971787 
     34000  -10720.577      45.65609      -10674.921      34             4318.5011      0.0078274366 
     35000  -10715.835      44.710342     -10671.125      35             4448.7491      0.0076776609 
     36000  -10717.152      42.260177     -10674.891      36             4579.4747      0.007649609  
     37000  -10716.787      44.707696     -10672.079      37             4711.3475      0.0075830667 
     38000  -10717.507      43.625257     -10673.881      38             4842.8247      0.0076058835 
     39000  -10718.843      43.952006     -10674.891      39             4974.7875      0.0075778924 
     40000  -10718.03       44.437069     -10673.593      40             5105.9059      0.0076266927 
     41000  -10719.704      43.930392     -10675.774      41             5236.4208      0.0076619589 
     42000  -10719.321      44.294549     -10675.027      42             5365.3329      0.0077572278 
     43000  -10716.154      45.15027      -10671.004      43             5494.9998      0.0077120682 
     44000  -10718.816      43.758211     -10675.058      44             5624.802       0.0077040258 
     45000  -10720.155      45.659281     -10674.496      45             5753.4898      0.007770749  
     46000  -10718.993      46.970359     -10672.022      46             5880.8236      0.0078533713 
     47000  -10719.334      44.013317     -10675.321      47             6007.8814      0.0078704344 
     48000  -10718.196      43.737986     -10674.458      48             6132.7913      0.0080057692 
     49000  -10717.668      44.689069     -10672.979      49             6258.1039      0.0079800454 
     50000  -10721.034      44.381077     -10676.653      50             6379.8516      0.0082137095 
     51000  -10717.742      45.133279     -10672.608      51             6498.5865      0.0084221206 
     52000  -10718.958      45.930728     -10673.027      52             6614.1896      0.0086502876 
     53000  -10718.196      43.056095     -10675.139      53             6727.7267      0.0088076924 
     54000  -10721.086      46.237968     -10674.848      54             6838.0804      0.009061768  
     55000  -10719.127      45.90877      -10673.218      55             6947.5833      0.0091321811 
     56000  -10720.89       44.845548     -10676.044      56             7057.8379      0.0090699194 
     57000  -10719.869      44.552889     -10675.316      57             7166.8479      0.0091734694 
     58000  -10721.642      43.681137     -10677.96       58             7276.1823      0.009146248  
     59000  -10721.389      45.678757     -10675.71       59             7384.7335      0.0092122458 
     60000  -10718.719      44.300583     -10674.419      60             7494.3712      0.0091209532 
     61000  -10721.005      43.271745     -10677.734      61             7603.5636      0.0091581424 
     62000  -10718.398      44.43849      -10673.96       62             7712.4986      0.0091797845 
     63000  -10719.039      44.992163     -10674.047      63             7821.4984      0.0091743354 
     64000  -10719.634      45.364057     -10674.27       64             7930.4258      0.0091804258 
     65000  -10721.555      42.648844     -10678.906      65             8041.4218      0.0090093308 
     66000  -10721.693      45.589255     -10676.104      66             8150.1264      0.009199244  
     67000  -10718.804      45.247116     -10673.557      67             8258.7189      0.0092087363 
     68000  -10722.699      44.189488     -10678.51       68             8367.1833      0.009219619  
     69000  -10720.041      42.712202     -10677.328      69             8475.8497      0.0092024778 
     70000  -10721.838      43.976782     -10677.861      70             8586.4694      0.0090399781 
     71000  -10721.427      43.782129     -10677.645      71             8695.2089      0.0091962901 
     72000  -10721.199      45.408438     -10675.79       72             8803.8928      0.0092009959 
     73000  -10722.357      45.297367     -10677.059      73             8912.6328      0.0091962433 
     74000  -10721.162      42.083264     -10679.079      74             9021.4968      0.0091857722 
     75000  -10721.038      44.697538     -10676.341      75             9131.226       0.0091133461 
     76000  -10722.871      43.111823     -10679.759      76             9240.3136      0.0091669493 
     77000  -10721.264      45.353495     -10675.91       77             9348.7981      0.0092179055 
     78000  -10723.28       45.38852      -10677.891      78             9457.0525      0.0092374962 
     79000  -10720.942      45.508365     -10675.433      79             9565.7833      0.0091970283 
     80000  -10722.307      45.161463     -10677.146      80             9674.4265      0.0092044457 
     81000  -10722.022      44.524537     -10677.498      81             9783.2444      0.0091896578 
     82000  -10722.231      44.777237     -10677.454      82             9892.1859      0.0091792455 
     83000  -10722.741      43.861522     -10678.879      83             10000.471      0.0092348871 
     84000  -10721.304      45.57854      -10675.726      84             10109.235      0.0091942399 
     85000  -10722.658      45.302611     -10677.355      85             10219.186      0.0090949024 
     86000  -10723.01       43.600082     -10679.41       86             10328.231      0.0091705521 
     87000  -10721.148      44.509312     -10676.638      87             10437.55       0.0091475704 
     88000  -10720.661      44.356854     -10676.304      88             10545.881      0.0092309156 
     89000  -10723.877      44.415479     -10679.462      89             10654.202      0.009231822  
     90000  -10724.716      44.908073     -10679.808      90             10764.209      0.0090903614 
     91000  -10721.001      44.939604     -10676.061      91             10873.711      0.0091322568 
     92000  -10722.103      42.355394     -10679.748      92             10981.744      0.0092563766 
     93000  -10723.22       44.834053     -10678.386      93             11089.855      0.0092498006 
     94000  -10724.911      46.495098     -10678.416      94             11199.091      0.009154483  
     95000  -10723.856      43.451346     -10680.405      95             11307.872      0.0091927816 
     96000  -10722.794      44.999718     -10677.795      96             11416.341      0.0092192304 
     97000  -10723.883      45.839765     -10678.044      97             11524.503      0.0092453982 
     98000  -10722.405      42.936682     -10679.469      98             11633.631      0.0091635153 
     99000  -10720.677      44.706584     -10675.97       99             11742.043      0.0092241082 
    100000  -10722.698      44.555126     -10678.143      100            11850.369      0.0092313973 
    101000  -10721.776      44.353702     -10677.422      101            11959.161      0.0091918776 
    102000  -10722.302      43.506615     -10678.796      102            12068.69       0.009129981  
    103000  -10723.373      45.821613     -10677.551      103            12179.294      0.009041251  
    104000  -10724.371      45.216112     -10679.155      104            12292.305      0.0088486898 
    105000  -10722.393      47.477378     -10674.916      105            12406.765      0.0087366925 
    106000  -10724.03       44.98853      -10679.042      106            12524.588      0.0084872941 
    107000  -10722.656      46.35722      -10676.299      107            12641.752      0.008535013  
    108000  -10724.686      44.407673     -10680.278      108            12761.833      0.0083277212 
    109000  -10722.292      45.429089     -10676.863      109            12883.025      0.0082513656 
    110000  -10722.372      43.824611     -10678.548      110            13005.357      0.0081745172 
    111000  -10723.13       45.499243     -10677.631      111            13128.303      0.0081336569 
    112000  -10724.031      44.396171     -10679.635      112            13251.44       0.0081210084 
    113000  -10722.094      44.516988     -10677.577      113            13373.09       0.0082203386 
    114000  -10721.571      42.124861     -10679.446      114            13491.808      0.0084232565 
    115000  -10721.924      45.199894     -10676.724      115            13613.696      0.0082042569 
    116000  -10723.914      44.490707     -10679.424      116            13737.821      0.0080564314 
    117000  -10724.439      47.751099     -10676.687      117            13861.873      0.0080611288 
    118000  -10723.584      43.835602     -10679.749      118            13988.732      0.0078827366 
    119000  -10723.753      46.245692     -10677.507      119            14116.396      0.0078331008 
    120000  -10723.438      44.181623     -10679.256      120            14244.421      0.007810966  
    121000  -10724.961      44.428296     -10680.533      121            14372.286      0.0078207727 
    122000  -10724.419      43.490404     -10680.929      122            14500.018      0.0078288812 
    123000  -10722.81       44.111428     -10678.698      123            14628.053      0.0078103247 
    124000  -10725.95       44.506341     -10681.443      124            14755.131      0.0078692075 
    125000  -10722.209      45.408977     -10676.8        125            14881.83       0.0078927517 
    126000  -10723.951      43.800697     -10680.15       126            15008.751      0.0078788882 
    127000  -10722.165      46.29214      -10675.873      127            15130.96       0.008182692  
    128000  -10725.067      44.271151     -10680.796      128            15252.633      0.0082187928 
    129000  -10724.277      45.321456     -10678.955      129            15370.4        0.0084912819 
    130000  -10723.414      44.756896     -10678.657      130            15487.318      0.0085529958 
    131000  -10725.433      45.045969     -10680.387      131            15601.93       0.008725144  
    132000  -10723.272      45.171119     -10678.101      132            15713.882      0.0089324119 
    133000  -10725.662      43.834071     -10681.828      133            15823.444      0.0091272095 
    134000  -10723.987      44.058468     -10679.928      134            15931.568      0.0092486176 
    135000  -10723.047      44.631866     -10678.415      135            16039.144      0.0092958051 
    136000  -10724.605      43.853267     -10680.751      136            16146.763      0.0092920617 
    137000  -10722.152      47.294682     -10674.858      137            16254.816      0.009254673  
    138000  -10722.305      41.925941     -10680.379      138            16363.354      0.0092133538 
    139000  -10722.353      45.622864     -10676.73       139            16472.374      0.0091726294 
    140000  -10723.909      45.369632     -10678.54       140            16580.816      0.0092215004 
    141000  -10725.464      44.582545     -10680.881      141            16690.53       0.009114602  
    142000  -10722.258      44.605828     -10677.653      142            16800.115      0.009125402  
    143000  -10724.863      44.804372     -10680.058      143            16909.292      0.0091593714 
    144000  -10722.418      46.992084     -10675.426      144            17018.552      0.0091524803 
    145000  -10724.685      45.747887     -10678.937      145            17126.846      0.0092341737 
    146000  -10722.847      46.102633     -10676.745      146            17237.741      0.0090175424 
    147000  -10723.264      44.391024     -10678.873      147            17347.915      0.0090765506 
    148000  -10722.896      46.857943     -10676.038      148            17458.478      0.0090446128 
    149000  -10724.739      44.768688     -10679.97       149            17567.455      0.0091762702 
    150000  -10721.607      45.526861     -10676.08       150            17677.92       0.0090525989 
    151000  -10724.561      45.846623     -10678.715      151            17789.985      0.0089234192 
    152000  -10723.443      45.994444     -10677.448      152            17901.681      0.0089528811 
    153000  -10724.423      45.703421     -10678.72       153            18013.438      0.0089479621 
    154000  -10722.003      45.704707     -10676.298      154            18123.28       0.009104004  
    155000  -10725.52       46.073769     -10679.446      155            18234.217      0.0090141365 
    156000  -10724.984      44.436581     -10680.547      156            18344.848      0.0090389968 
    157000  -10722.624      44.086745     -10678.537      157            18457.741      0.0088579979 
    158000  -10724.481      45.383989     -10679.098      158            18569.713      0.0089308093 
    159000  -10723.72       46.361536     -10677.358      159            18679.875      0.009077542  
    160000  -10724.611      43.753128     -10680.858      160            18791.614      0.0089493599 
    161000  -10722.215      43.687848     -10678.527      161            18904.6        0.0088506598 
    162000  -10723.32       46.8005       -10676.519      162            19019.943      0.0086698421 
    163000  -10722.997      43.587542     -10679.409      163            19133.736      0.0087878997 
    164000  -10724.386      46.07499      -10678.311      164            19245.173      0.0089736228 
    165000  -10725.236      44.310909     -10680.925      165            19358.474      0.0088260825 
    166000  -10722.776      43.38076      -10679.395      166            19472.393      0.0087781236 
    167000  -10722.889      44.423918     -10678.465      167            19587.039      0.0087225618 
    168000  -10721.192      44.751343     -10676.441      168            19700.697      0.0087983208 
    169000  -10723.444      44.347016     -10679.097      169            19813.446      0.008869219  
    170000  -10721.502      44.752376     -10676.75       170            19928.476      0.0086933655 
    171000  -10723.059      43.627974     -10679.431      171            20046.16       0.0084973802 
    172000  -10722.469      44.203584     -10678.265      172            20165.495      0.0083797303 
    173000  -10724.651      43.531248     -10681.119      173            20288.163      0.008152087  
    174000  -10722.201      45.800965     -10676.4        174            20412.403      0.0080489462 
    175000  -10724.716      44.564235     -10680.152      175            20539.656      0.0078583559 
    176000  -10723.506      45.989602     -10677.517      176            20667.884      0.0077985991 
    177000  -10724.252      42.825588     -10681.426      177            20795.589      0.0078305595 
    178000  -10723.57       46.670773     -10676.899      178            20923.214      0.0078354373 
    179000  -10723.211      44.275513     -10678.936      179            21049.576      0.0079137917 
    180000  -10723.115      45.929615     -10677.185      180            21172.635      0.0081261836 
    181000  -10723.47       43.449779     -10680.02       181            21293.498      0.0082738122 
    182000  -10722.157      43.791462     -10678.366      182            21414.986      0.0082313062 
    183000  -10722.839      44.443367     -10678.395      183            21536.931      0.0082004309 
    184000  -10723.853      45.306494     -10678.546      184            21659.373      0.0081670865 
    185000  -10723.398      44.389954     -10679.009      185            21781.201      0.0082083339 
    186000  -10726.592      45.780398     -10680.812      186            21902.062      0.0082739501 
    187000  -10723.52       44.546505     -10678.974      187            22021.827      0.0083496942 
    188000  -10720.591      46.287962     -10674.303      188            22145.169      0.0081075569 
    189000  -10724.635      44.848277     -10679.786      189            22270.235      0.0079957192 
    190000  -10723.853      45.848293     -10678.005      190            22397.488      0.0078583792 
    191000  -10724.522      43.702828     -10680.819      191            22525.366      0.0078199477 
    192000  -10723.54       45.123791     -10678.416      192            22655.789      0.0076674029 
    193000  -10724.969      44.501171     -10680.468      193            22783.905      0.0078054136 
    194000  -10725.018      45.337693     -10679.68       194            22907.631      0.008082361  
    195000  -10723.799      44.818939     -10678.98       195            23026.708      0.0083979021 
    196000  -10724.414      44.993435     -10679.421      196            23142.003      0.0086734279 
    197000  -10722.413      45.410501     -10677.003      197            23256.739      0.0087156452 
    198000  -10722.883      42.194231     -10680.689      198            23372.152      0.0086645656 
    199000  -10723.077      45.656134     -10677.42       199            23487.093      0.0087001126 
    200000  -10724.895      43.797283     -10681.098      200            23601.356      0.0087517555 
    201000  -10724.458      47.534614     -10676.923      201            23715.196      0.0087842445 
    202000  -10724.138      43.473924     -10680.664      202            23829.888      0.0087189913 
    203000  -10721.368      43.886699     -10677.481      203            23944.712      0.0087090006 
    204000  -10726.213      45.343897     -10680.869      204            24059.448      0.008715641  
    205000  -10724.519      45.031113     -10679.488      205            24173.43       0.0087732889 
    206000  -10724.309      42.832915     -10681.476      206            24287.581      0.0087603561 
    207000  -10723.764      44.314517     -10679.45       207            24402.037      0.0087369994 
    208000  -10724.568      45.860673     -10678.707      208            24516.079      0.0087686782 
    209000  -10725.54       44.065312     -10681.474      209            24630.23       0.0087602962 
    210000  -10723.137      43.577383     -10679.56       210            24744.05       0.0087858057 
    211000  -10725.339      44.48685      -10680.853      211            24857.784      0.0087924763 
    212000  -10724.333      44.515612     -10679.818      212            24971.289      0.0088102018 
    213000  -10724.612      45.19706      -10679.414      213            25085.771      0.0087349869 
    214000  -10724.279      44.516572     -10679.763      214            25201.543      0.0086376624 
    215000  -10723.038      44.88645      -10678.152      215            25315.744      0.0087564513 
    216000  -10725.314      44.629007     -10680.685      216            25429.794      0.0087680971 
    217000  -10725.458      44.088363     -10681.37       217            25543.833      0.0087689631 
    218000  -10724.515      43.091259     -10681.424      218            25658.567      0.0087157829 
    219000  -10724.58       44.934815     -10679.645      219            25773.42       0.0087067695 
    220000  -10725.414      44.016069     -10681.398      220            25888.628      0.0086799791 
    221000  -10724.36       43.966679     -10680.393      221            26005.995      0.008520276  
    222000  -10724.842      42.716156     -10682.126      222            26127.489      0.0082308832 
    223000  -10724.955      44.974554     -10679.98       223            26251.822      0.0080429177 
    224000  -10724.867      42.776389     -10682.09       224            26377.557      0.0079532485 
    225000  -10724.761      43.658688     -10681.102      225            26504.88       0.0078540104 
    226000  -10722.774      44.450785     -10678.323      226            26632.966      0.0078072491 
    227000  -10725.887      45.494751     -10680.392      227            26762.828      0.0077004756 
    228000  -10725.177      43.581701     -10681.596      228            26891.593      0.0077661196 
    229000  -10724.949      44.471722     -10680.477      229            27020.112      0.0077809454 
    230000  -10726.093      45.345132     -10680.748      230            27146.665      0.0079018313 
    231000  -10726.239      45.722819     -10680.517      231            27272.356      0.0079560244 
    232000  -10724.051      45.60415      -10678.447      232            27396.087      0.0080820299 
    233000  -10724.472      44.133803     -10680.338      233            27516.329      0.0083165619 
    234000  -10724.216      45.647674     -10678.568      234            27636.338      0.0083327091 
    235000  -10724.8        42.866194     -10681.934      235            27756.258      0.008338861  
    236000  -10725.748      45.768667     -10679.979      236            27879.671      0.0081029129 
    237000  -10723.737      44.290042     -10679.447      237            28004.506      0.0080105865 
    238000  -10725.057      45.369105     -10679.688      238            28131.756      0.0078585399 
    239000  -10723.758      44.454691     -10679.303      239            28258.127      0.0079132104 
    240000  -10725.791      44.309605     -10681.481      240            28388.307      0.0076816234 
    241000  -10724.672      44.578346     -10680.094      241            28518.702      0.0076690513 
    242000  -10727.1        44.808248     -10682.292      242            28649.785      0.0076287085 
    243000  -10723.884      44.524912     -10679.359      243            28778.864      0.0077472342 
    244000  -10726.192      44.167209     -10682.025      244            28906.702      0.0078223617 
    245000  -10723.646      47.599946     -10676.046      245            29033.236      0.0079030442 
    246000  -10725.716      44.026002     -10681.69       246            29157.069      0.0080753852 
    247000  -10724.088      43.720132     -10680.368      247            29276.619      0.0083646918 
    248000  -10726.323      47.309061     -10679.014      248            29394.53       0.0084809532 
    249000  -10725.59       43.994266     -10681.596      249            29509.589      0.0086911993 
    250000  -10724.945      41.999903     -10682.945      250            29625.054      0.0086606459 
    251000  -10725.584      45.104082     -10680.48       251            29739.514      0.0087367237 
    252000  -10725.956      45.136378     -10680.82       252            29853.11       0.008803104  
    253000  -10724.686      44.744765     -10679.941      253            29967.102      0.0087725251 
    254000  -10726.857      45.93076      -10680.926      254            30081.177      0.0087661836 
    255000  -10724.826      47.033246     -10677.793      255            30196.948      0.0086377274 
    256000  -10724.691      43.366056     -10681.325      256            30310.687      0.0087920375 
    257000  -10724.676      43.904064     -10680.772      257            30424.598      0.0087788418 
    258000  -10723.577      45.734952     -10677.842      258            30538.197      0.0088028426 
    259000  -10725.743      43.816036     -10681.927      259            30652.197      0.0087719695 
    260000  -10726.716      47.319852     -10679.396      260            30766.676      0.0087351715 
    261000  -10726.492      43.174407     -10683.318      261            30880.069      0.0088189267 
    262000  -10725          46.551849     -10678.449      262            30993.602      0.0088079756 
    263000  -10724.306      44.622708     -10679.683      263            31106.977      0.0088203311 
    264000  -10724.473      44.039504     -10680.433      264            31220.466      0.0088113986 
    265000  -10723.13       45.357079     -10677.773      265            31334.783      0.0087476068 
    266000  -10724.742      45.406439     -10679.336      266            31450.237      0.0086614848 
    267000  -10724.175      44.28378      -10679.891      267            31565.41       0.008682538  
    268000  -10723.419      43.968715     -10679.45       268            31680.461      0.0086918138 
    269000  -10726.368      46.557        -10679.811      269            31795.386      0.0087013463 
    270000  -10725.09       42.911833     -10682.179      270            31911.273      0.0086291032 
    271000  -10723.862      45.380249     -10678.482      271            32029.151      0.0084833614 
    272000  -10725.409      43.585572     -10681.823      272            32147.714      0.0084343018 
    273000  -10725.065      42.820901     -10682.245      273            32266.998      0.0083833693 
    274000  -10725.94       44.204283     -10681.735      274            32389.131      0.0081877786 
    275000  -10722.948      46.10112      -10676.847      275            32515.225      0.0079305804 
    276000  -10726.337      44.526064     -10681.811      276            32644.981      0.007706804  
    277000  -10723.636      43.620195     -10680.016      277            32772.948      0.0078144798 
    278000  -10724.964      46.348779     -10678.615      278            32903.863      0.0076385766 
    279000  -10724.914      44.938721     -10679.975      279            33035.659      0.0075874931 
    280000  -10726.264      45.11754      -10681.146      280            33167.735      0.0075713578 
    281000  -10723.321      45.296161     -10678.024      281            33296.172      0.0077859526 
    282000  -10725.682      43.944279     -10681.738      282            33423.958      0.0078255496 
    283000  -10725.116      44.057832     -10681.058      283            33553.193      0.0077378787 
    284000  -10724.415      44.831734     -10679.583      284            33679.141      0.0079397615 
    285000  -10725.311      41.462978     -10683.848      285            33804.066      0.0080047889 
    286000  -10724.983      45.827364     -10679.156      286            33925.578      0.0082296604 
    287000  -10726.716      43.982184     -10682.734      287            34048.052      0.0081650331 
    288000  -10724.964      44.995203     -10679.969      288            34172.034      0.0080656326 
    289000  -10724.576      44.075932     -10680.5        289            34295.075      0.0081274074 
    290000  -10723.964      42.973936     -10680.99       290            34420.601      0.0079664981 
    291000  -10723.008      42.548477     -10680.46       291            34547.564      0.0078762928 
    292000  -10725.295      43.110947     -10682.184      292            34673.247      0.0079565188 
    293000  -10724.44       45.464099     -10678.976      293            34798.773      0.0079665002 
    294000  -10724.654      46.275715     -10678.378      294            34924.934      0.0079263759 
    295000  -10725.452      44.350324     -10681.102      295            35052.078      0.0078650882 
    296000  -10724.934      44.5375       -10680.396      296            35178.225      0.0079272689 
    297000  -10726.121      43.348468     -10682.772      297            35304.903      0.0078939872 
    298000  -10724.274      42.59461      -10681.679      298            35430.748      0.0079463009 
    299000  -10723.862      46.071827     -10677.79       299            35557.282      0.0079029848 
    300000  -10724.063      43.449826     -10680.613      300            35686.972      0.0077107393 
    301000  -10724.69       44.755714     -10679.934      301            35820.12       0.0075104018 
    302000  -10724.215      44.443398     -10679.772      302            35950.05       0.0076964724 
    303000  -10725.958      43.555726     -10682.403      303            36078.67       0.0077748326 
    304000  -10724.978      44.286227     -10680.692      304            36205.346      0.0078941613 
    305000  -10726.038      43.619801     -10682.418      305            36326.009      0.0082875664 
    306000  -10725.16       43.17165      -10681.988      306            36446.068      0.0083292429 
    307000  -10724.116      45.114983     -10679.001      307            36566.518      0.0083021966 
    308000  -10725.395      43.642511     -10681.752      308            36684.574      0.0084705684 
    309000  -10726.702      46.020155     -10680.682      309            36801.277      0.008568735  
    310000  -10724.85       45.012542     -10679.837      310            36915.636      0.0087443518 
    311000  -10726.305      42.287255     -10684.018      311            37030.861      0.0086786951 
    312000  -10726.243      45.966725     -10680.276      312            37144.757      0.0087799768 
    313000  -10728.16       44.559581     -10683.601      313            37258.737      0.0087734702 
    314000  -10726.205      46.735046     -10679.47       314            37374.593      0.0086313781 
    315000  -10725.369      43.226424     -10682.142      315            37490.815      0.0086042336 
    316000  -10724.269      45.794018     -10678.475      316            37606.364      0.0086543519 
    317000  -10727.036      45.453058     -10681.583      317            37720.158      0.0087877659 
    318000  -10726.602      45.705709     -10680.896      318            37835.798      0.0086475136 
    319000  -10724.954      44.53103      -10680.423      319            37952.231      0.0085886561 
    320000  -10727.1        44.698383     -10682.402      320            38067.954      0.0086413572 
    321000  -10725.244      45.371855     -10679.872      321            38183.233      0.0086745665 
    322000  -10724.801      42.723578     -10682.077      322            38298.754      0.0086564235 
    323000  -10724.874      46.408112     -10678.466      323            38415.784      0.008544863  
    324000  -10726.427      44.821454     -10681.605      324            38532.099      0.0085973124 
    325000  -10723.815      44.751464     -10679.063      325            38648.389      0.0085992304 
    326000  -10725.272      44.566        -10680.706      326            38764.676      0.0085993834 
    327000  -10726.037      43.629078     -10682.408      327            38880.69       0.0086196524 
    328000  -10724.618      43.524228     -10681.094      328            38997.028      0.0085956653 
    329000  -10724.014      45.072755     -10678.941      329            39112.807      0.0086371246 
    330000  -10723.998      44.506459     -10679.492      330            39229.81       0.0085467563 
    331000  -10728.33       46.543537     -10681.786      331            39346.506      0.0085693057 
    332000  -10725.103      44.556125     -10680.546      332            39463.131      0.0085744875 
    333000  -10725.115      45.685216     -10679.429      333            39579.652      0.0085821336 
    334000  -10726.504      45.331708     -10681.172      334            39696.033      0.0085924753 
    335000  -10723.384      45.497236     -10677.887      335            39813.191      0.0085354901 
    336000  -10725.708      44.856432     -10680.852      336            39929.7        0.0085830179 
    337000  -10728.779      43.896337     -10684.882      337            40046.848      0.0085362222 
    338000  -10726.051      46.617158     -10679.434      338            40163.798      0.0085506586 
    339000  -10727.832      44.52509      -10683.307      339            40281.205      0.0085173576 
    340000  -10724.896      44.697812     -10680.198      340            40399.662      0.0084419322 
    341000  -10725.476      43.913222     -10681.563      341            40518.935      0.0083840766 
    342000  -10724.514      44.233112     -10680.281      342            40641.524      0.0081573407 
    343000  -10725.801      44.055485     -10681.746      343            40765.618      0.0080584012 
    344000  -10726.04       44.748691     -10681.292      344            40894.616      0.0077520794 
    345000  -10725.549      45.587116     -10679.962      345            41027.043      0.0075513102 
    346000  -10726.899      44.57219      -10682.326      346            41159.744      0.0075357571 
    347000  -10725.528      44.892357     -10680.635      347            41293.006      0.0075040061 
    348000  -10725.187      43.15927      -10682.028      348            41425.872      0.0075263669 
    349000  -10724.87       43.222551     -10681.648      349            41559.774      0.0074681744 
    350000  -10723.569      43.067853     -10680.501      350            41690.766      0.0076340518 
    351000  -10726.481      43.406607     -10683.075      351            41820.483      0.0077091119 
    352000  -10726.862      43.70108      -10683.161      352            41950.346      0.0077004191 
    353000  -10725.041      44.855177     -10680.186      353            42077.93       0.0078379499 
    354000  -10724.734      42.452906     -10682.282      354            42205.582      0.0078338162 
    355000  -10724.499      45.649907     -10678.849      355            42330.884      0.0079807234 
    356000  -10725.006      44.215157     -10680.79       356            42453.482      0.0081566927 
    357000  -10726.54       46.68474      -10679.855      357            42575.374      0.0082040356 
    358000  -10726.841      43.667081     -10683.174      358            42696.433      0.0082604114 
    359000  -10725.984      46.598157     -10679.386      359            42818.535      0.0081898719 
    360000  -10727.914      44.011064     -10683.903      360            42939.113      0.0082934022 
    361000  -10723.852      43.439527     -10680.412      361            43062.279      0.0081191408 
    362000  -10724.736      46.22011      -10678.516      362            43186.27       0.0080650476 
    363000  -10726.348      44.254869     -10682.093      363            43312.392      0.0079288827 
    364000  -10726.049      45.691971     -10680.357      364            43440.452      0.007808792  
    365000  -10725.349      42.580636     -10682.769      365            43568.496      0.0078098277 
    366000  -10725.197      44.831807     -10680.366      366            43693.656      0.0079897591 
    367000  -10725.31       45.132584     -10680.178      367            43820.227      0.0079007103 
    368000  -10725.463      44.601287     -10680.861      368            43946.269      0.0079339001 
    369000  -10726.4        42.208375     -10684.192      369            44072.863      0.007899259  
    370000  -10726.726      45.807417     -10680.919      370            44195.894      0.0081280411 
    371000  -10726.496      43.280406     -10683.215      371            44316.854      0.0082671608 
    372000  -10726.409      44.268355     -10682.141      372            44439.613      0.0081460229 
    373000  -10726.646      43.945063     -10682.701      373            44560.644      0.0082623893 
    374000  -10724.895      44.110475     -10680.784      374            44681.015      0.0083076472 
    375000  -10723.341      43.322156     -10680.019      375            44802.282      0.008246268  
    376000  -10725.023      43.941683     -10681.081      376            44926.538      0.0080478859 
    377000  -10726.97       43.666595     -10683.304      377            45052.173      0.0079595481 
    378000  -10725.407      44.27124      -10681.136      378            45175.953      0.0080788723 
    379000  -10725.611      44.999473     -10680.611      379            45301.569      0.0079607941 
    380000  -10726.914      43.586443     -10683.328      380            45427.657      0.0079309632 
    381000  -10725.508      45.079857     -10680.428      381            45554.04       0.0079124585 
    382000  -10727.426      44.645383     -10682.78       382            45677.225      0.0081178385 
    383000  -10723.21       45.29559      -10677.915      383            45799.244      0.008195482  
    384000  -10726.172      45.149551     -10681.023      384            45916.408      0.0085350307 
    385000  -10725.069      45.892435     -10679.177      385            46031.12       0.008717496  
    386000  -10724.615      43.753987     -10680.861      386            46143.586      0.0088915118 
    387000  -10725.926      43.898087     -10682.028      387            46255.793      0.0089121056 
    388000  -10725.292      46.645781     -10678.646      388            46367.806      0.0089275594 
    389000  -10725.995      45.440505     -10680.555      389            46477.763      0.0090944632 
    390000  -10726.32       44.290166     -10682.03       390            46587.807      0.0090873195 
    391000  -10724.996      44.289358     -10680.706      391            46697.622      0.0091062057 
    392000  -10724.036      44.199515     -10679.837      392            46807.166      0.0091286943 
    393000  -10725.942      44.434129     -10681.508      393            46916.402      0.0091544921 
    394000  -10724.44       44.362177     -10680.077      394            47027.035      0.0090389195 
    395000  -10725.304      43.998038     -10681.306      395            47137.479      0.0090543549 
    396000  -10726.09       45.142902     -10680.947      396            47247.303      0.009105519  
    397000  -10727.306      44.238899     -10683.067      397            47357.233      0.009096674  
    398000  -10723.967      46.038547     -10677.928      398            47466.894      0.0091190349 
    399000  -10726.881      45.214324     -10681.667      399            47578.165      0.0089870741 
    400000  -10727.451      43.486035     -10683.965      400            47688.235      0.0090851083 
    401000  -10725.69       45.114457     -10680.576      401            47797.252      0.0091728653 
    402000  -10726.453      42.761152     -10683.692      402            47905.998      0.0091957682 
    403000  -10726.332      44.742559     -10681.589      403            48014.717      0.0091980276 
    404000  -10725.875      44.799042     -10681.076      404            48124.537      0.0091058044 
    405000  -10725.706      45.077427     -10680.629      405            48235.216      0.0090350996 
    406000  -10725.931      46.699933     -10679.231      406            48344.372      0.0091611939 
    407000  -10724.505      43.743875     -10680.762      407            48453.312      0.0091794331 
    408000  -10726.234      45.914304     -10680.32       408            48562.987      0.0091177728 
    409000  -10725.412      43.608444     -10681.804      409            48672.79       0.0091072717 
    410000  -10725.464      43.723006     -10681.741      410            48782.939      0.0090786336 
    411000  -10726.066      46.124298     -10679.941      411            48893.119      0.0090760094 
    412000  -10726.28       44.44512      -10681.835      412            49002.769      0.0091199118 
    413000  -10725.939      44.638736     -10681.3        413            49112.681      0.009098189  
    414000  -10725.596      44.957419     -10680.638      414            49221.931      0.009153356  
    415000  -10724.688      43.122217     -10681.566      415            49332.96       0.0090066088 
    416000  -10725.348      45.138047     -10680.21       416            49444.449      0.0089695507 
    417000  -10724.923      43.385287     -10681.538      417            49554.149      0.0091157809 
    418000  -10726.342      45.290909     -10681.051      418            49663.013      0.0091857188 
    419000  -10724.017      45.111595     -10678.905      419            49771.842      0.0091887066 
    420000  -10726.882      43.643455     -10683.238      420            49881.083      0.0091541034 
    421000  -10724.399      44.212295     -10680.187      421            49991.429      0.0090624307 
    422000  -10727.11       44.718999     -10682.391      422            50100.808      0.009142502  
    423000  -10724.746      43.372198     -10681.373      423            50210.582      0.0091096419 
    424000  -10724.733      46.553258     -10678.179      424            50320.551      0.0090934844 
    425000  -10724.861      43.914704     -10680.946      425            50429.895      0.0091454548 
    426000  -10725.374      46.261443     -10679.112      426            50539.959      0.0090855698 
    427000  -10726.705      43.965819     -10682.739      427            50649.536      0.0091260148 
    428000  -10725.461      44.174911     -10681.286      428            50758.889      0.0091447103 
    429000  -10724.796      43.701082     -10681.095      429            50868.183      0.0091495918 
    430000  -10726.533      43.943575     -10682.589      430            50977.113      0.0091802823 
    431000  -10725.947      44.501485     -10681.445      431            51086.444      0.0091464666 
    432000  -10728.031      42.769287     -10685.261      432            51197.044      0.0090416572 
    433000  -10725.105      45.347344     -10679.757      433            51307.575      0.0090471722 
    434000  -10726.638      44.151411     -10682.486      434            51417.586      0.0090899897 
    435000  -10724.465      46.103069     -10678.362      435            51527.278      0.0091164705 
    436000  -10724.841      42.876633     -10681.964      436            51638.638      0.0089798948 
    437000  -10726.291      46.984065     -10679.307      437            51752.753      0.0087630874 
    438000  -10726.176      43.125265     -10683.051      438            51866.608      0.0087830946 
    439000  -10726.293      45.214348     -10681.079      439            51980.714      0.008763777  
    440000  -10724.989      43.966475     -10681.023      440            52097.08       0.0085935951 
    441000  -10726.28       44.311226     -10681.969      441            52216.277      0.0083894822 
    442000  -10725.743      42.554067     -10683.189      442            52336.656      0.0083070483 
    443000  -10723.075      42.96283      -10680.112      443            52457.446      0.0082788725 
    444000  -10726.09       42.163468     -10683.926      444            52579.937      0.0081638546 
    445000  -10725.822      45.099778     -10680.722      445            52702.676      0.0081473378 
    446000  -10725.611      44.438221     -10681.172      446            52824.54       0.0082058824 
    447000  -10725.942      43.707001     -10682.235      447            52944.327      0.0083481973 
    448000  -10724.668      45.117813     -10679.55       448            53064.147      0.0083458535 
    449000  -10726.325      45.594338     -10680.73       449            53185.276      0.0082556054 
    450000  -10726.405      47.179741     -10679.225      450            53308.662      0.0081046964 
    451000  -10725.641      44.217998     -10681.423      451            53431.367      0.0081495709 
    452000  -10722.781      43.632782     -10679.148      452            53556.528      0.0079897593 
    453000  -10726.266      44.517082     -10681.749      453            53683.182      0.0078955184 
    454000  -10725.458      45.881183     -10679.577      454            53809.436      0.0079205459 
    455000  -10725.51       43.862108     -10681.648      455            53936.621      0.0078625298 
    456000  -10725.35       46.228512     -10679.121      456            54063.926      0.0078551673 
    457000  -10724.148      45.138569     -10679.01       457            54191.959      0.0078105094 
    458000  -10725.987      44.583993     -10681.403      458            54320.404      0.0077854394 
    459000  -10725.72       46.816674     -10678.903      459            54448.975      0.007777801  
    460000  -10725.84       42.512865     -10683.327      460            54577.528      0.0077788407 
    461000  -10725.712      45.779527     -10679.933      461            54705.936      0.0077877188 
    462000  -10725.756      44.864092     -10680.892      462            54833.613      0.0078322567 
    463000  -10725.453      42.762425     -10682.691      463            54960.855      0.0078590003 
    464000  -10724.242      45.558551     -10678.684      464            55089.036      0.0078015045 
    465000  -10725.012      42.102491     -10682.909      465            55217.356      0.00779303   
    466000  -10725.615      44.039209     -10681.576      466            55345.856      0.0077821081 
    467000  -10723.894      45.183829     -10678.711      467            55474.97       0.0077450617 
    468000  -10726.411      43.781636     -10682.63       468            55603.752      0.0077650852 
    469000  -10723.673      44.24786      -10679.425      469            55732.622      0.0077597576 
    470000  -10725.492      45.110385     -10680.381      470            55861.538      0.0077569887 
    471000  -10726.055      45.287263     -10680.768      471            55991.014      0.0077234217 
    472000  -10724.597      44.900666     -10679.697      472            56120.404      0.0077285965 
    473000  -10725.649      44.091215     -10681.558      473            56249.431      0.0077503031 
    474000  -10725.309      45.658754     -10679.651      474            56379.005      0.0077175888 
    475000  -10725.476      43.410301     -10682.065      475            56508.214      0.0077393933 
    476000  -10723.866      46.803294     -10677.063      476            56637.712      0.0077221175 
    477000  -10726.02       43.593996     -10682.426      477            56767.306      0.0077163922 
    478000  -10724.886      44.436926     -10680.449      478            56896.484      0.0077412585 
    479000  -10725.484      40.937917     -10684.546      479            57025.513      0.0077501906 
    480000  -10724.771      45.722394     -10679.049      480            57154.759      0.0077372252 
    481000  -10725.124      43.721757     -10681.403      481            57283.108      0.0077912253 
    482000  -10721.696      43.725698     -10677.97       482            57410.488      0.0078505637 
    483000  -10726.518      45.61148      -10680.907      483            57537.428      0.0078777484 
    484000  -10723.976      45.224533     -10678.751      484            57663.481      0.0079331384 
    485000  -10726.383      43.967459     -10682.415      485            57790.59       0.0078672772 
    486000  -10724.592      43.826716     -10680.765      486            57915.675      0.0079945443 
    487000  -10724.849      45.321012     -10679.528      487            58041.833      0.0079266007 
    488000  -10727.437      43.029839     -10684.407      488            58166.578      0.0080163464 
    489000  -10725.208      45.580341     -10679.628      489            58290.861      0.0080461654 
    490000  -10726.246      42.676294     -10683.57       490            58414.947      0.0080588707 
    491000  -10723.426      43.399443     -10680.027      491            58539.968      0.007998704  
    492000  -10725.282      43.663557     -10681.618      492            58664.355      0.008039429  
    493000  -10724.992      43.74836      -10681.243      493            58788.085      0.0080821081 
    494000  -10726.206      44.54368      -10681.663      494            58910.116      0.0081946336 
    495000  -10723.814      46.060279     -10677.754      495            59033.557      0.0081010276 
    496000  -10725.493      44.531619     -10680.961      496            59156.76       0.0081166878 
    497000  -10724.303      45.599687     -10678.703      497            59279.901      0.0081207863 
    498000  -10727.077      44.803537     -10682.274      498            59402.236      0.0081742446 
    499000  -10724.776      43.62527      -10681.15       499            59527.651      0.0079735554 
    500000  -10725.533      45.146947     -10680.386      500            59654.338      0.0078934723 
    501000  -10726.002      45.450361     -10680.551      501            59780.57       0.0079219186 
    502000  -10726.507      45.49904      -10681.008      502            59906.961      0.0079119091 
    503000  -10723.786      47.568008     -10676.218      503            60033.437      0.0079066623 
    504000  -10725.084      43.884022     -10681.2        504            60158.439      0.0079998825 
    505000  -10725.754      45.363213     -10680.391      505            60283.141      0.0080190897 
    506000  -10724.893      42.998346     -10681.894      506            60406.736      0.0080909633 
    507000  -10724.157      44.263736     -10679.894      507            60529.941      0.0081165688 
    508000  -10726.182      44.517905     -10681.664      508            60651.949      0.0081961838 
    509000  -10726.859      45.091173     -10681.768      509            60771.008      0.0083991448 
    510000  -10726.446      45.112941     -10681.333      510            60886.916      0.0086275514 
    511000  -10724.985      46.74598      -10678.239      511            61000.561      0.0087993801 
    512000  -10727.636      44.825142     -10682.811      512            61114.144      0.0088041237 
    513000  -10725.319      44.678354     -10680.641      513            61228.169      0.0087699986 
    514000  -10727.046      44.412781     -10682.633      514            61341.557      0.0088192433 
    515000  -10725.037      45.309511     -10679.727      515            61454.098      0.0088857092 
    516000  -10725.441      44.749356     -10680.691      516            61566.235      0.0089176263 
    517000  -10725.401      43.084257     -10682.316      517            61678.516      0.0089062023 
    518000  -10724.631      44.479988     -10680.151      518            61790.649      0.0089180317 
    519000  -10724.309      45.284549     -10679.025      519            61902.787      0.0089175891 
    520000  -10725.664      44.402189     -10681.261      520            62015.516      0.0088707765 
    521000  -10721.224      43.333582     -10677.891      521            62127.672      0.008916173  
    522000  -10725.754      44.78003      -10680.974      522            62240.328      0.0088765941 
    523000  -10724.119      44.901532     -10679.217      523            62352.443      0.0089194182 
    524000  -10724.544      45.714262     -10678.83       524            62464.863      0.0088951696 
    525000  -10726.429      43.589359     -10682.84       525            62577.77       0.0088568424 
    526000  -10724.888      43.52188      -10681.367      526            62690.362      0.0088816749 
    527000  -10724.502      45.28389      -10679.218      527            62803.149      0.0088662598 
    528000  -10726.186      44.702831     -10681.483      528            62916.021      0.0088595701 
    529000  -10723.519      46.689638     -10676.83       529            63028.797      0.008867162  
    530000  -10726.507      44.409357     -10682.097      530            63142.144      0.0088224433 
    531000  -10723.776      44.811234     -10678.965      531            63255.508      0.0088211246 
    532000  -10725.114      42.798257     -10682.315      532            63369.012      0.0088102827 
    533000  -10726.291      46.072324     -10680.218      533            63481.637      0.0088790406 
    534000  -10725.214      46.674892     -10678.539      534            63594.916      0.0088277924 
    535000  -10725.005      43.875745     -10681.129      535            63708.304      0.0088192102 
    536000  -10722.117      45.28732      -10676.829      536            63821.645      0.0088229512 
    537000  -10724.892      42.611106     -10682.281      537            63934.434      0.0088661239 
    538000  -10725.194      44.873        -10680.321      538            64047.435      0.0088494838 
    539000  -10725.715      43.670251     -10682.044      539            64160.737      0.0088259264 
    540000  -10723.6        43.511856     -10680.088      540            64273.814      0.0088436015 
    541000  -10724.329      43.08184      -10681.248      541            64387.316      0.0088103652 
    542000  -10724.964      45.632406     -10679.332      542            64500.139      0.0088634885 
    543000  -10725.278      45.181513     -10680.096      543            64613.224      0.0088428514 
    544000  -10724.399      45.545826     -10678.853      544            64726.854      0.0088004891 
    545000  -10724.345      44.750998     -10679.594      545            64839.753      0.0088575349 
    546000  -10727.588      44.833354     -10682.754      546            64952.397      0.0088774943 
    547000  -10724.938      43.713301     -10681.225      547            65064.638      0.0089094383 
    548000  -10726.254      44.294353     -10681.959      548            65177.566      0.0088551721 
    549000  -10724.852      45.707255     -10679.144      549            65289.844      0.0089064887 
    550000  -10725.817      44.765814     -10681.051      550            65401.017      0.0089949798 
    551000  -10726.581      46.04721      -10680.534      551            65511.641      0.0090396288 
    552000  -10726.186      44.316686     -10681.869      552            65622.86       0.0089912161 
    553000  -10727.003      45.110215     -10681.893      553            65732.646      0.0091086219 
    554000  -10723.911      45.685729     -10678.225      554            65841.266      0.0092064588 
    555000  -10726.615      45.530756     -10681.084      555            65950.145      0.0091844889 
    556000  -10725.858      46.715579     -10679.142      556            66058.785      0.0092047025 
    557000  -10725.814      42.984859     -10682.829      557            66169.148      0.0090610193 
    558000  -10724.381      42.667247     -10681.714      558            66278.094      0.0091788934 
    559000  -10723.753      45.197487     -10678.556      559            66386.105      0.0092582447 
    560000  -10727.035      45.813112     -10681.222      560            66494.32       0.0092408939 
    561000  -10725.963      44.90823      -10681.055      561            66602.767      0.0092210964 
    562000  -10724.728      45.543693     -10679.184      562            66712.983      0.0090731138 
    563000  -10725.372      45.217426     -10680.155      563            66823.602      0.00904003   
    564000  -10726.461      45.781273     -10680.68       564            66935.078      0.0089704981 
    565000  -10726.496      44.039398     -10682.456      565            67049.973      0.0087036362 
    566000  -10724.592      44.820681     -10679.771      566            67166.56       0.0085773037 
    567000  -10724.139      45.751387     -10678.388      567            67282.545      0.0086217524 
    568000  -10725.443      44.472288     -10680.97       568            67401.273      0.008422619  
    569000  -10724.976      44.876007     -10680.1        569            67522.086      0.0082773107 
    570000  -10725.491      43.216124     -10682.275      570            67646.154      0.0080600343 
    571000  -10725.524      45.335015     -10680.189      571            67772.008      0.0079457426 
    572000  -10726.476      45.542113     -10680.934      572            67899.484      0.0078446421 
    573000  -10724.786      45.571721     -10679.214      573            68027.706      0.0077989728 
    574000  -10726.191      44.25778      -10681.933      574            68156.947      0.0077374345 
    575000  -10724.343      46.453048     -10677.89       575            68286.568      0.0077148017 
    576000  -10725.31       43.375122     -10681.935      576            68416.682      0.0076855909 
    577000  -10724.824      46.024033     -10678.8        577            68547.504      0.0076439558 
    578000  -10725.902      44.596058     -10681.306      578            68678.395      0.0076399563 
    579000  -10726.377      46.185333     -10680.192      579            68809.733      0.007613946  
    580000  -10726.892      43.519444     -10683.373      580            68940.949      0.0076210451 
    581000  -10726.76       46.310537     -10680.449      581            69071.861      0.0076386954 
    582000  -10724.511      44.720909     -10679.79       582            69202.51       0.0076540878 
    583000  -10724.552      45.229633     -10679.322      583            69332.663      0.0076832713 
    584000  -10727.576      42.981842     -10684.594      584            69462.199      0.0077198871 
    585000  -10725.49       45.973326     -10679.517      585            69590.49       0.007794754  
    586000  -10725.904      43.586303     -10682.317      586            69718.086      0.0078372544 
    587000  -10726.221      47.04257      -10679.179      587            69847.564      0.0077233107 
    588000  -10724.626      44.504071     -10680.121      588            69977.378      0.0077033207 
    589000  -10727.741      44.5161       -10683.225      589            70107.278      0.0076982576 
    590000  -10724.618      44.702688     -10679.915      590            70236.839      0.0077183658 
    591000  -10726.94       43.374094     -10683.566      591            70367.232      0.0076691306 
    592000  -10725.585      45.700194     -10679.885      592            70496.928      0.0077103011 
    593000  -10725.701      44.933208     -10680.767      593            70625.073      0.0078036443 
    594000  -10726.638      44.371106     -10682.267      594            70753.505      0.0077862391 
    595000  -10725.924      44.179953     -10681.744      595            70881.294      0.007825392  
    596000  -10725.773      45.76539      -10680.008      596            71007.071      0.0079505772 
    597000  -10726.322      44.121948     -10682.2        597            71130.189      0.008122336  
    598000  -10725.691      44.942104     -10680.749      598            71253.314      0.0081217849 
    599000  -10725.589      45.401445     -10680.188      599            71372.546      0.0083870016 
    600000  -10728.494      43.36261      -10685.132      600            71492.112      0.008363578  
    601000  -10725.455      44.255636     -10681.2        601            71612.45       0.0083099332 
    602000  -10725.53       44.882797     -10680.647      602            71729.692      0.0085293818 
    603000  -10726.992      43.787687     -10683.205      603            71847.053      0.008520713  
    604000  -10724.093      44.56349      -10679.53       604            71965.706      0.0084279173 
    605000  -10725.763      45.99777      -10679.766      605            72087.011      0.0082436854 
    606000  -10725.728      44.760355     -10680.968      606            72208.912      0.0082033894 
    607000  -10727.202      43.951496     -10683.251      607            72332.123      0.0081161968 
    608000  -10726.511      46.153415     -10680.357      608            72456.124      0.0080644457 
    609000  -10725.78       42.235765     -10683.544      609            72580.947      0.0080113043 
    610000  -10724.815      45.099332     -10679.716      610            72706.909      0.0079389258 
    611000  -10726.021      44.760281     -10681.261      611            72833.409      0.0079051446 
    612000  -10726.027      42.939069     -10683.088      612            72959.864      0.0079079762 
    613000  -10725.621      44.365294     -10681.256      613            73086.034      0.0079257584 
    614000  -10726.682      42.642429     -10684.039      614            73211.892      0.0079454703 
    615000  -10727.174      45.945592     -10681.228      615            73337.825      0.0079407763 
    616000  -10724.799      42.650137     -10682.149      616            73464.228      0.0079111671 
    617000  -10725.936      45.06605      -10680.87       617            73590.014      0.0079500055 
    618000  -10727.427      44.877684     -10682.549      618            73714.383      0.0080406293 
    619000  -10725.244      44.211176     -10681.033      619            73838.051      0.0080861516 
    620000  -10725.226      43.338656     -10681.887      620            73960.685      0.0081543339 
    621000  -10725.867      44.281391     -10681.586      621            74082.346      0.0082195433 
    622000  -10724.077      45.535172     -10678.542      622            74200.381      0.0084720612 
    623000  -10724.703      45.351453     -10679.352      623            74318.121      0.0084933254 
    624000  -10725.208      43.45277      -10681.755      624            74438.521      0.0083056435 
    625000  -10723.776      42.984038     -10680.792      625            74557.63       0.0083956645 
    626000  -10726.611      43.329586     -10683.281      626            74672.776      0.0086846252 
    627000  -10726.22       44.930721     -10681.289      627            74787.025      0.0087527737 
    628000  -10725.27       45.19674      -10680.074      628            74898.814      0.0089454312 
    629000  -10727.309      43.135865     -10684.173      629            75009.803      0.0090099504 
    630000  -10724.241      45.550021     -10678.691      630            75119.781      0.0090927319 
    631000  -10725.455      43.771933     -10681.683      631            75229.31       0.0091299867 
    632000  -10724.356      43.456068     -10680.9        632            75338.463      0.009161489  
    633000  -10725.297      44.4072       -10680.89       633            75447.523      0.0091691934 
    634000  -10726.075      45.485967     -10680.589      634            75556.848      0.0091470365 
    635000  -10725.253      44.254863     -10680.999      635            75666.167      0.0091475362 
    636000  -10724.282      45.828994     -10678.453      636            75776.204      0.0090878727 
    637000  -10726.444      46.290641     -10680.153      637            75885.221      0.0091729347 
    638000  -10726.066      42.643013     -10683.423      638            75994.612      0.0091415168 
    639000  -10724.35       43.462453     -10680.888      639            76103.972      0.0091440723 
    640000  -10725.804      43.163445     -10682.64       640            76213.103      0.0091632784 
    641000  -10725.228      44.955566     -10680.272      641            76322.333      0.0091549785 
    642000  -10725.157      46.124472     -10679.032      642            76431.827      0.0091329746 
    643000  -10726.481      46.99642      -10679.485      643            76540.852      0.0091722199 
    644000  -10724.892      44.19227      -10680.7        644            76650.034      0.0091589696 
    645000  -10725.434      44.155491     -10681.279      645            76759.109      0.0091680442 
    646000  -10725.35       45.042413     -10680.307      646            76868.35       0.0091540323 
    647000  -10724.947      44.85809      -10680.089      647            76979.314      0.0090119753 
    648000  -10724.256      43.771387     -10680.484      648            77089.107      0.0091080344 
    649000  -10724.149      42.482201     -10681.667      649            77198.632      0.0091302926 
    650000  -10723.766      44.714467     -10679.052      650            77308.902      0.0090686645 
    651000  -10725.014      43.986943     -10681.027      651            77419.71       0.0090246627 
    652000  -10725.011      45.727479     -10679.284      652            77531.19       0.0089701727 
    653000  -10728.244      42.95992      -10685.284      653            77642.305      0.0089996884 
    654000  -10725.318      44.983765     -10680.335      654            77753          0.0090338852 
    655000  -10726.512      44.982731     -10681.529      655            77863.936      0.0090142106 
    656000  -10723.482      43.388161     -10680.094      656            77975.266      0.0089822597 
    657000  -10725.269      46.35082      -10678.918      657            78086.304      0.0090058998 
    658000  -10725.248      44.03897      -10681.209      658            78197.893      0.0089614702 
    659000  -10723.817      43.373469     -10680.444      659            78310.113      0.008911124  
    660000  -10725.153      44.008626     -10681.144      660            78423.238      0.0088397288 
    661000  -10723.363      44.385114     -10678.978      661            78539.897      0.0085719694 
    662000  -10724.116      44.343298     -10679.772      662            78659.664      0.0083496141 
    663000  -10725.255      44.271081     -10680.984      663            78781.282      0.0082224083 
    664000  -10725.335      45.476723     -10679.858      664            78905.264      0.0080657369 
    665000  -10727.047      45.093514     -10681.954      665            79030.65       0.0079753188 
    666000  -10725.117      44.410262     -10680.707      666            79157.033      0.0079124604 
    667000  -10724.381      44.021464     -10680.36       667            79285.011      0.0078138649 
    668000  -10724.229      43.812393     -10680.417      668            79414.267      0.0077365571 
    669000  -10725.087      46.451072     -10678.636      669            79545.399      0.0076259581 
    670000  -10725.545      44.552816     -10680.992      670            79678.69       0.0075023695 
    671000  -10726.52       43.546651     -10682.973      671            79812.379      0.0074800276 
    672000  -10724.847      44.739968     -10680.107      672            79945.033      0.0075384129 
    673000  -10727.988      45.196535     -10682.792      673            80077.869      0.0075280722 
    674000  -10725.574      44.972784     -10680.601      674            80209.857      0.0075764469 
    675000  -10724.42       45.793479     -10678.627      675            80341.825      0.0075775839 
    676000  -10725.99       44.293379     -10681.696      676            80473.29       0.0076065949 
    677000  -10725.196      44.629498     -10680.567      677            80602.755      0.0077241309 
    678000  -10725.609      43.329917     -10682.279      678            80730.699      0.0078159047 
    679000  -10724.623      44.078119     -10680.545      679            80858.456      0.0078273559 
    680000  -10725.696      44.364333     -10681.332      680            80983.657      0.0079871231 
    681000  -10724.327      44.032798     -10680.295      681            81109.872      0.0079229954 
    682000  -10725.583      44.962093     -10680.62       682            81233.74       0.0080731507 
    683000  -10723.226      44.961843     -10678.265      683            81357.684      0.0080681132 
    684000  -10724.556      43.531004     -10681.025      684            81480.895      0.0081161852 
    685000  -10724.726      44.78306      -10679.943      685            81604.137      0.0081141462 
    686000  -10725.036      42.063966     -10682.972      686            81728.138      0.0080644278 
    687000  -10724.343      44.363377     -10679.98       687            81855.325      0.0078624541 
    688000  -10726.894      43.913554     -10682.98       688            81981.392      0.007932251  
    689000  -10723.37       44.346156     -10679.024      689            82107.945      0.0079018551 
    690000  -10726.764      45.857907     -10680.906      690            82234.786      0.0078838531 
    691000  -10722.487      45.211537     -10677.275      691            82360.147      0.0079770051 
    692000  -10724.372      44.654813     -10679.717      692            82485.354      0.0079867713 
    693000  -10726.277      44.325504     -10681.952      693            82609.35       0.0080647514 
    694000  -10724.839      45.330946     -10679.508      694            82728.742      0.0083757861 
    695000  -10725.847      44.89724      -10680.95       695            82848.579      0.0083446302 
    696000  -10726.031      48.318922     -10677.712      696            82969.155      0.0082935298 
    697000  -10724.984      44.203003     -10680.781      697            83090.506      0.0082406049 
    698000  -10724.375      46.875531     -10677.499      698            83213.399      0.0081371596 
    699000  -10725.688      45.328063     -10680.36       699            83338.542      0.0079908388 
    700000  -10726.606      44.344991     -10682.261      700            83464.469      0.0079411405 
    701000  -10724.337      44.975048     -10679.362      701            83591.73       0.0078578165 
    702000  -10725.488      44.256018     -10681.232      702            83718.847      0.0078667645 
    703000  -10726.449      45.31245      -10681.137      703            83845.609      0.0078888003 
    704000  -10726.501      44.85825      -10681.643      704            83971.433      0.0079476618 
    705000  -10725.226      46.975775     -10678.25       705            84096.811      0.0079758559 
    706000  -10725.612      44.920155     -10680.691      706            84220.693      0.0080722129 
    707000  -10725.872      43.510583     -10682.361      707            84343.565      0.0081385528 
    708000  -10724.407      44.16024      -10680.247      708            84463.207      0.0083582691 
    709000  -10725.285      42.798381     -10682.486      709            84581.498      0.0084537019 
    710000  -10724.278      45.608488     -10678.669      710            84696.682      0.0086817912 
    711000  -10724.661      44.802832     -10679.859      711            84808.685      0.0089282861 
    712000  -10724.89       42.911984     -10681.978      712            84919.305      0.0090399687 
    713000  -10724.598      43.835799     -10680.762      713            85028.92       0.0091228733 
    714000  -10726.12       44.770744     -10681.349      714            85137.594      0.0092017722 
    715000  -10726.787      45.975156     -10680.812      715            85245.601      0.0092586996 
    716000  -10726.074      46.257736     -10679.816      716            85354.187      0.0092092943 
    717000  -10726.309      42.555419     -10683.754      717            85462.26       0.0092529659 
    718000  -10725.436      46.120378     -10679.315      718            85570.814      0.0092120353 
    719000  -10723.931      46.503123     -10677.428      719            85679.081      0.0092364339 
    720000  -10723.101      42.442201     -10680.659      720            85787.347      0.0092365123 
    721000  -10724.694      47.01602      -10677.678      721            85896.012      0.0092026226 
    722000  -10724.358      42.701102     -10681.657      722            86006.477      0.0090526347 
    723000  -10723.34       44.936401     -10678.404      723            86117.903      0.0089745746 
    724000  -10725.62       43.949923     -10681.67       724            86229.341      0.008973531  
    725000  -10725.009      43.558126     -10681.451      725            86341.46       0.0089190894 
    726000  -10723.978      43.715217     -10680.263      726            86454.124      0.0088759476 
    727000  -10724.78       44.337565     -10680.443      727            86568.931      0.0087102905 
    728000  -10724.857      45.523915     -10679.333      728            86682.904      0.0087739921 
    729000  -10726.154      43.864113     -10682.29       729            86796.639      0.0087924222 
    730000  -10724.87       44.733541     -10680.137      730            86910.503      0.0087824067 
    731000  -10725.86       44.246729     -10681.613      731            87024.529      0.0087699159 
    732000  -10724.202      45.464582     -10678.737      732            87139.522      0.0086961718 
    733000  -10725.096      43.855147     -10681.241      733            87255.743      0.0086043234 
    734000  -10724.507      44.549046     -10679.958      734            87372.402      0.008571972  
    735000  -10724.268      45.081428     -10679.187      735            87489.808      0.008517434  
    736000  -10726.774      44.69928      -10682.075      736            87606.746      0.0085515694 
    737000  -10723.93       44.559173     -10679.371      737            87723.677      0.0085520564 
    738000  -10724.418      43.344129     -10681.074      738            87840.854      0.0085341081 
    739000  -10725.871      43.699593     -10682.171      739            87957.416      0.008579101  
    740000  -10724.808      45.321994     -10679.486      740            88073.785      0.0085933509 
    741000  -10726.396      43.892675     -10682.504      741            88190.773      0.0085478541 
    742000  -10726.007      44.669306     -10681.338      742            88307.754      0.0085484528 
    743000  -10724.92       43.482012     -10681.438      743            88427.254      0.0083681492 
    744000  -10724.425      45.12402      -10679.301      744            88547.258      0.0083330827 
    745000  -10727.36       45.377046     -10681.983      745            88668.17       0.0082704563 
    746000  -10725.173      44.641923     -10680.531      746            88786.386      0.0084591461 
    747000  -10721.584      45.401323     -10676.183      747            88903.47       0.0085408444 
[...]
   4888000  -10730.037      43.228139     -10686.808      4888           619396.27      0.0075445242 
   4889000  -10729.008      44.908072     -10684.1        4889           619525.4       0.007744188  
   4890000  -10729.375      45.142688     -10684.233      4890           619653.14      0.0078283562 
   4891000  -10728.736      45.431839     -10683.304      4891           619782.55      0.0077274068 
   4892000  -10729.742      46.895708     -10682.846      4892           619914.72      0.007566029  
   4893000  -10731.25       44.113312     -10687.137      4893           620047.23      0.0075465577 
   4894000  -10728.884      43.81689      -10685.067      4894           620176.34      0.0077454969 
   4895000  -10727.831      44.872242     -10682.959      4895           620303.62      0.0078569928 
   4896000  -10730.215      45.217775     -10684.998      4896           620427.04      0.0081023126 
   4897000  -10730.313      45.322513     -10684.99       4897           620547.96      0.0082694478 
   4898000  -10729.565      46.402829     -10683.162      4898           620667.17      0.0083889806 
   4899000  -10730.229      43.104715     -10687.125      4899           620786.32      0.0083924779 
   4900000  -10729.087      45.664797     -10683.422      4900           620907.12      0.0082781716 
   4901000  -10728.628      44.387304     -10684.241      4901           621028.56      0.008234819  
   4902000  -10729.545      47.133176     -10682.412      4902           621152.63      0.008060099  
   4903000  -10730.619      44.369259     -10686.249      4903           621278.99      0.0079138353 
   4904000  -10728.596      44.397256     -10684.199      4904           621406.23      0.0078592115 
   4905000  -10729.371      43.414086     -10685.957      4905           621536.06      0.0077023225 
   4906000  -10726.697      43.122308     -10683.575      4906           621665.87      0.0077036564 
   4907000  -10729.031      44.067019     -10684.964      4907           621798.26      0.0075531992 
   4908000  -10729.25       43.735697     -10685.514      4908           621928.79      0.00766089   
   4909000  -10730.17       46.309025     -10683.861      4909           622056.48      0.0078314591 
   4910000  -10730.346      42.349864     -10687.996      4910           622181.1       0.0080246802 
   4911000  -10729.376      45.976683     -10683.399      4911           622308.53      0.0078474175 
   4912000  -10729.366      44.810757     -10684.555      4912           622439.06      0.0076611097 
   4913000  -10728.503      42.468628     -10686.034      4913           622570.69      0.0075971546 
   4914000  -10728.452      44.019322     -10684.433      4914           622704.16      0.0074920405 
   4915000  -10730.586      43.842886     -10686.743      4915           622838.49      0.007444239  
   4916000  -10729.377      44.784546     -10684.593      4916           622973.01      0.0074339666 
   4917000  -10728.199      43.661933     -10684.537      4917           623107.25      0.0074496086 
   4918000  -10728.135      44.448876     -10683.686      4918           623242.29      0.0074052368 
   4919000  -10729.01       44.66624      -10684.343      4919           623378.25      0.0073546396 
   4920000  -10728.937      44.188669     -10684.748      4920           623513.5       0.0073937403 
   4921000  -10726.952      46.07394      -10680.878      4921           623650.23      0.0073138898 
   4922000  -10728.643      43.82207      -10684.821      4922           623785.95      0.0073683823 
   4923000  -10728.455      45.557284     -10682.898      4923           623922.94      0.0072996917 
   4924000  -10729.042      42.752262     -10686.29       4924           624058.73      0.0073644166 
   4925000  -10727.474      43.411757     -10684.062      4925           624194.36      0.0073726591 
   4926000  -10726.238      46.123769     -10680.115      4926           624330.63      0.0073386817 
   4927000  -10729.79       43.271925     -10686.518      4927           624466.67      0.007350673  
   4928000  -10728.755      45.750393     -10683.005      4928           624597.95      0.007617117  
   4929000  -10729.363      44.011265     -10685.352      4929           624726.99      0.0077495908 
   4930000  -10728.91       44.53814      -10684.372      4930           624854.94      0.0078157476 
   4931000  -10727.378      44.960439     -10682.417      4931           624984.25      0.0077329748 
   4932000  -10729.109      42.904779     -10686.205      4932           625112.49      0.0077978698 
   4933000  -10727.244      45.389571     -10681.855      4933           625244.39      0.007581525  
   4934000  -10728.182      45.946908     -10682.235      4934           625379.4       0.0074070303 
   4935000  -10729.053      43.021164     -10686.031      4935           625516.2       0.0073099725 
   4936000  -10727.187      44.248194     -10682.939      4936           625651.22      0.0074065597 
   4937000  -10728.15       43.80868      -10684.341      4937           625787.75      0.0073241681 
   4938000  -10727.559      45.08091      -10682.478      4938           625923.48      0.0073676918 
   4939000  -10729.451      44.460258     -10684.991      4939           626060.46      0.0073003743 
   4940000  -10727.15       45.46757      -10681.682      4940           626197.19      0.0073132664 
   4941000  -10728.471      43.592911     -10684.878      4941           626333.77      0.0073217444 
   4942000  -10726.792      45.986603     -10680.806      4942           626470.26      0.0073267201 
   4943000  -10728.587      44.174247     -10684.412      4943           626606.17      0.0073579054 
   4944000  -10727.938      44.398737     -10683.539      4944           626741.13      0.0074093385 
   4945000  -10729.083      43.847981     -10685.235      4945           626875.61      0.0074364062 
   4946000  -10727.337      47.075344     -10680.262      4946           627010.46      0.0074156734 
   4947000  -10727.842      43.341876     -10684.5        4947           627145.76      0.0073909759 
   4948000  -10728.597      46.450294     -10682.147      4948           627277.63      0.007582815  
   4949000  -10726.979      44.148247     -10682.831      4949           627407.62      0.0076928965 
   4950000  -10727.471      45.860508     -10681.611      4950           627535.61      0.0078133093 
   4951000  -10728.196      43.101101     -10685.095      4951           627663.71      0.0078066412 
   4952000  -10727.105      46.049449     -10681.055      4952           627788.7       0.0080004911 
   4953000  -10729.115      44.689137     -10684.426      4953           627918.23      0.0077198712 
   4954000  -10727.535      46.559421     -10680.975      4954           628047.65      0.00772695   
   4955000  -10726.621      43.352628     -10683.268      4955           628178.36      0.0076503995 
   4956000  -10729.666      45.304363     -10684.362      4956           628310.76      0.0075533118 
   4957000  -10726.41       44.751783     -10681.658      4957           628443.4       0.0075390895 
   4958000  -10727.041      44.648905     -10682.392      4958           628576.36      0.0075211595 
   4959000  -10729.155      43.72879      -10685.426      4959           628709.51      0.0075098761 
   4960000  -10728.172      43.912609     -10684.26       4960           628843.1       0.0074859524 
   4961000  -10727.315      46.521953     -10680.793      4961           628976.44      0.0074993038 
   4962000  -10727.059      44.145002     -10682.914      4962           629109.34      0.007524674  
   4963000  -10729.382      42.899812     -10686.482      4963           629242.45      0.0075127896 
   4964000  -10728.84       45.717358     -10683.123      4964           629374.82      0.0075543276 
   4965000  -10728.071      43.278563     -10684.793      4965           629506.75      0.0075797423 
   4966000  -10726.396      45.015908     -10681.381      4966           629639.65      0.0075247775 
   4967000  -10727.134      44.06613      -10683.068      4967           629772.32      0.0075373135 
   4968000  -10727.115      45.225742     -10681.89       4968           629902.53      0.0076797288 
   4969000  -10729.634      43.88809      -10685.746      4969           630028.88      0.0079146915 
   4970000  -10726.405      43.759131     -10682.646      4970           630154.59      0.0079546506 
   4971000  -10728.903      45.142131     -10683.761      4971           630282.05      0.0078455025 
   4972000  -10727.761      46.014709     -10681.746      4972           630408.55      0.0079054047 
   4973000  -10729.066      43.09422      -10685.972      4973           630533.73      0.0079882945 
   4974000  -10728.459      45.125442     -10683.334      4974           630659.6       0.0079450865 
   4975000  -10728.375      44.565014     -10683.81       4975           630789.91      0.0076738458 
   4976000  -10729.066      44.194081     -10684.872      4976           630922.73      0.0075288935 
   4977000  -10730.015      44.484881     -10685.531      4977           631054.03      0.0076161202 
   4978000  -10727.537      46.401161     -10681.136      4978           631188.12      0.0074579118 
   4979000  -10728.372      44.784005     -10683.588      4979           631324.74      0.0073194246 
   4980000  -10729.742      44.08852      -10685.653      4980           631462.2       0.007274636  
   4981000  -10727.867      45.692411     -10682.174      4981           631598.6       0.0073316737 
   4982000  -10728.62       44.994224     -10683.626      4982           631735.44      0.0073074601 
   4983000  -10728.48       45.108111     -10683.372      4983           631872.53      0.0072948234 
   4984000  -10728.244      42.511581     -10685.732      4984           632009.88      0.0072806776 
   4985000  -10726.41       44.389228     -10682.02       4985           632144.32      0.0074383032 
   4986000  -10729.824      44.147892     -10685.676      4986           632278.16      0.0074713065 
   4987000  -10727.173      44.710347     -10682.463      4987           632412.22      0.0074593601 
   4988000  -10729.11       45.229009     -10683.881      4988           632545.21      0.0075193227 
   4989000  -10727.976      47.952114     -10680.024      4989           632678.48      0.0075035984 
   4990000  -10728.258      42.971131     -10685.287      4990           632811.86      0.0074976844 
   4991000  -10726.82       45.65447      -10681.166      4991           632946.05      0.0074520065 
   4992000  -10728.307      43.676751     -10684.63       4992           633080.36      0.0074455782 
   4993000  -10727.903      46.314803     -10681.588      4993           633215.45      0.0074020898 
   4994000  -10728.713      44.869316     -10683.843      4994           633349.64      0.0074523416 
   4995000  -10728.002      43.591169     -10684.411      4995           633483.88      0.0074492073 
   4996000  -10727.984      44.235755     -10683.748      4996           633617.74      0.0074704599 
   4997000  -10729.264      46.097379     -10683.166      4997           633751.79      0.0074599012 
   4998000  -10727.319      42.517436     -10684.801      4998           633883.63      0.0075848739 
   4999000  -10727.044      43.241417     -10683.803      4999           634015.02      0.0076110026 
   5000000  -10728.667      44.604883     -10684.062      5000           634145.09      0.0076886242 
Loop time of 634145 on 16 procs for 5000000 steps with 1152 atoms

Performance: 0.681 ns/day, 35.230 hours/ns, 7.885 timesteps/s, 9.083 katom-step/s
99.2% CPU use with 16 MPI tasks x 1 OpenMP threads

MPI task timing breakdown:
Section |  min time  |  avg time  |  max time  |%varavg| %total
---------------------------------------------------------------
Pair    | 1.5728e+05 | 1.6444e+05 | 1.7057e+05 |1025.0 | 25.93
Neigh   | 1715.8     | 1829.6     | 1916.3     | 150.3 |  0.29
Comm    | 24157      | 27159      | 29518      | 942.0 |  4.28
Output  | 409.39     | 409.46     | 410.47     |   1.3 |  0.06
Modify  | 4.3554e+05 | 4.4026e+05 | 4.4519e+05 | 498.4 | 69.43
Other   |            | 46.99      |            |       |  0.01

Nlocal:             72 ave          84 max          50 min
Histogram: 1 0 1 0 1 3 2 4 2 2
Nghost:        852.188 ave         917 max         719 min
Histogram: 2 0 0 0 2 2 0 3 2 5
Neighs:              0 ave           0 max           0 min
Histogram: 16 0 0 0 0 0 0 0 0 0
FullNghs:      5990.12 ave        7799 max        3480 min
Histogram: 1 0 3 1 1 2 3 1 0 4

Total # of neighbors = 95842
Ave neighs/atom = 83.196181
Neighbor list builds = 10000000
Dangerous builds = 0

unfix temp

min_style cg
fix 0 all box/relax aniso 0 vmax 0.001
minimize 0 0 100000 100000
Per MPI rank memory allocation (min/avg/max) = 5.534 | 5.54 | 5.544 Mbytes
   Step         PotEng         KinEng         TotEng          Time           CPU           T/CPU     
   5000000  -10728.667      44.604883     -10684.062      5000           0              0            
   5001000  -10774.243      44.604883     -10729.638      5001           71.540229      0.013978149  
   5002000  -10774.246      44.604883     -10729.641      5002           152.48227      0.01235452   
   5003000  -10774.246      44.604883     -10729.641      5003           233.48209      0.012345707  
   5004000  -10774.246      44.604883     -10729.641      5004           313.96612      0.012424825  
   5005000  -10774.246      44.604883     -10729.641      5005           394.53169      0.012412249  
   5006000  -10774.246      44.604883     -10729.641      5006           475.00488      0.0124265    
   5007000  -10774.246      44.604883     -10729.641      5007           555.49945      0.012423198  
   5008000  -10774.246      44.604883     -10729.641      5008           636.09628      0.012407435  
   5009000  -10774.246      44.604883     -10729.641      5009           716.65766      0.012412895  
   5010000  -10774.246      44.604883     -10729.641      5010           797.47239      0.012373982  
   5011000  -10774.246      44.604883     -10729.641      5011           880.06909      0.012107022  
   5012000  -10774.246      44.604883     -10729.641      5012           962.65506      0.012108594  
   5013000  -10774.246      44.604883     -10729.641      5013           1044.9055      0.012157988  
   5014000  -10774.246      44.604883     -10729.641      5014           1127.18        0.012154438  
   5015000  -10774.246      44.604883     -10729.641      5015           1209.8541      0.012095684  
   5016000  -10774.246      44.604883     -10729.641      5016           1292.2379      0.012138313  
   5017000  -10774.246      44.604883     -10729.641      5017           1374.6147      0.012139332  
   5018000  -10774.246      44.604883     -10729.641      5018           1457.6699      0.012040187  
   5019000  -10774.246      44.604883     -10729.641      5019           1540.5359      0.012067676  
   5020000  -10774.246      44.604883     -10729.641      5020           1622.869       0.012145784  
   5021000  -10774.246      44.604883     -10729.641      5021           1705.1795      0.012149127  
   5022000  -10774.246      44.604883     -10729.641      5022           1787.5223      0.01214435   
   5023000  -10774.246      44.604883     -10729.641      5023           1869.8829      0.012141729  
   5024000  -10774.246      44.604883     -10729.641      5024           1952.4617      0.012109642  
   5025000  -10774.246      44.604883     -10729.641      5025           2034.1308      0.012244539  
   5026000  -10774.246      44.604883     -10729.641      5026           2114.4079      0.012456848  
   5027000  -10774.246      44.604883     -10729.641      5027           2194.6628      0.0124603    
   5028000  -10774.246      44.604883     -10729.641      5028           2275.3985      0.012386086  
   5029000  -10774.246      44.604883     -10729.641      5029           2355.628       0.012464247  
   5030000  -10774.246      44.604883     -10729.641      5030           2436.0358      0.012436605  
   5031000  -10774.246      44.604883     -10729.641      5031           2516.3898      0.012444936  
   5032000  -10774.246      44.604883     -10729.641      5032           2598.3983      0.012193846  
   5033000  -10774.246      44.604883     -10729.641      5033           2680.2108      0.012223085  
   5034000  -10774.246      44.604883     -10729.641      5034           2762.5474      0.012145253  
   5035000  -10774.246      44.604883     -10729.641      5035           2844.868       0.01214763   
   5036000  -10774.246      44.604883     -10729.641      5036           2927.4718      0.012105988  
   5037000  -10774.246      44.604883     -10729.641      5037           3009.7998      0.012146532  
   5038000  -10774.246      44.604883     -10729.641      5038           3092.3132      0.012119251  
   5039000  -10774.246      44.604883     -10729.641      5039           3174.8794      0.012111493  
   5040000  -10774.246      44.604883     -10729.641      5040           3257.6038      0.012088333  
   5041000  -10774.246      44.604883     -10729.641      5041           3339.7612      0.012171754  
   5042000  -10774.246      44.604883     -10729.641      5042           3422.35        0.012108172  
   5043000  -10774.246      44.604883     -10729.641      5043           3504.7377      0.012137742  
   5044000  -10774.246      44.604883     -10729.641      5044           3587.015       0.012154025  
   5045000  -10774.246      44.604883     -10729.641      5045           3669.3713      0.012142361  
   5046000  -10774.246      44.604883     -10729.641      5046           3751.6552      0.012153044  
   5047000  -10774.246      44.604883     -10729.641      5047           3834.7386      0.012036093  
   5048000  -10774.246      44.604883     -10729.641      5048           3916.9147      0.012168994  
   5049000  -10774.246      44.604883     -10729.641      5049           3999.2403      0.012146886  
   5050000  -10774.246      44.604883     -10729.641      5050           4081.5114      0.012154941  
   5050128  -10774.246      44.604883     -10729.641      5050.128       4092.0587      0.012135798  
Loop time of 4092.06 on 16 procs for 50128 steps with 1152 atoms

99.2% CPU use with 16 MPI tasks x 1 OpenMP threads

Minimization stats:
  Stopping criterion = max force evaluations
  Energy initial, next-to-last, final = 
     -10728.6671667814  -10774.2462340862  -10774.2462340862
  Force two-norm initial, final = 106.72017 5.0035613e-11
  Force max component initial, final = 82.374415 3.4445709e-11
  Final line search alpha, max atom move = 1 3.4445709e-11
  Iterations, force evaluations = 50128 100000

MPI task timing breakdown:
Section |  min time  |  avg time  |  max time  |%varavg| %total
---------------------------------------------------------------
Pair    | 2238.5     | 3355.1     | 3989.4     | 735.9 | 81.99
Neigh   | 0.0002375  | 0.00032561 | 0.00041564 |   0.0 |  0.00
Comm    | 4.016      | 530.6      | 1716.8     |1971.9 | 12.97
Output  | 0.0071153  | 0.0078659  | 0.01837    |   3.1 |  0.00
Modify  | 0          | 0          | 0          |   0.0 |  0.00
Other   |            | 206.4      |            |       |  5.04

Nlocal:             72 ave          84 max          50 min
Histogram: 1 0 1 0 1 3 2 4 2 2
Nghost:        853.062 ave         917 max         719 min
Histogram: 2 0 0 0 2 2 0 3 2 5
Neighs:              0 ave           0 max           0 min
Histogram: 16 0 0 0 0 0 0 0 0 0
FullNghs:       6005.5 ave        7826 max        3484 min
Histogram: 1 0 3 1 1 2 3 1 0 4

Total # of neighbors = 96088
Ave neighs/atom = 83.409722
Neighbor list builds = 1
Dangerous builds = 0

write_data data.CSRO
System init for write_data ...

print "all done"
all done
Total wall time: 177:17:17
